Created on Wed Mar 21 15:39:37 2018 

        1526 atoms
        6855 bonds
       61292 angles
         378 dihedrals
         108 impropers

           4 atom types
           6 bond types
           8 angle types
           3 dihedral types
           1 improper types
           0.000000  50.358000 xlo xhi
           0.000000  50.869300 ylo yhi
           0.000000  50.000000 zlo zhi
           0.000000   0.000000   0.000000 xy xz yz

Masses

    1    63.546000000 # Cu3+1
    2    12.010700000 # C_R
    3     1.007940000 # H_
    4    12.010700000 # C_3

Bond Coeffs

    1       57.988603        2.604000  # Cu3+1 Cu3+1
    2      462.655054        1.379256  # C_R C_R
    3      357.440381        1.081418  # C_R H_
    4      369.943935        1.486000  # C_R C_3
    5      349.795899        1.514000  # C_3 C_3
    6      331.069389        1.109401  # C_3 H_

Angle Coeffs

    1                      fourier        5.237082        0.343737        0.374972        0.281246 # Cu3+1 Cu3+1 Cu3+1
    2              cosine/periodic      117.010657              -1               3 # C_R C_R C_R
    3              cosine/periodic       76.817955              -1               3 # C_R C_R H_
    4              cosine/periodic       96.739224              -1               3 # C_3 C_R C_R
    5                      fourier       97.888497        0.343737        0.374972        0.281246 # C_R C_3 C_3
    6                      fourier       93.452663        0.343737        0.374972        0.281246 # C_3 C_3 C_3
    7                      fourier       69.847816        0.343737        0.374972        0.281246 # C_3 C_3 H_
    8                      fourier       61.342703        0.343737        0.374972        0.281246 # H_ C_3 H_

Dihedral Coeffs

    1        1.497136              -1               2 # C_R C_R C_R H_
    2        0.083333               1               3 # C_R C_R C_3 C_3
    3        0.066219               1               3 # C_3 C_3 C_3 H_

Improper Coeffs

    1        2.000000        1.000000       -1.000000        0.000000               0 # C_R C_R C_R C_R

Pair Coeffs

    1        0.005000        3.113691 # Cu3+1 Cu3+1
    2        0.105000        3.430851 # C_R C_R
    3        0.044000        2.571134 # H_ H_
    4        0.105000        3.430851 # C_3 C_3

Atoms

       1      444        1     0.00000    0.00000    0.00000    0.00000
       2      444        1     0.00000    3.59556    0.00000    0.00000
       3      444        1     0.00000    7.19616    0.00000    0.00000
       4      444        1     0.00000   10.79172    0.00000    0.00000
       5      444        1     0.00000   14.38728    0.00000    0.00000
       6      444        1     0.00000   17.98284    0.00000    0.00000
       7      444        1     0.00000   21.58344    0.00000    0.00000
       8      444        1     0.00000   25.17900    0.00000    0.00000
       9      444        1     0.00000   28.77456    0.00000    0.00000
      10      444        1     0.00000   32.37516    0.00000    0.00000
      11      444        1     0.00000   35.97072    0.00000    0.00000
      12      444        1     0.00000   39.56628    0.00000    0.00000
      13      444        1     0.00000   43.16184    0.00000    0.00000
      14      444        1     0.00000   46.76244    0.00000    0.00000
      15      444        1     0.00000    0.00000    2.54347    0.00000
      16      444        1     0.00000    3.59556    2.54347    0.00000
      17      444        1     0.00000    7.19616    2.54347    0.00000
      18      444        1     0.00000   10.79172    2.54347    0.00000
      19      444        1     0.00000   14.38728    2.54347    0.00000
      20      444        1     0.00000   17.98284    2.54347    0.00000
      21      444        1     0.00000   21.58344    2.54347    0.00000
      22      444        1     0.00000   25.17900    2.54347    0.00000
      23      444        1     0.00000   28.77456    2.54347    0.00000
      24      444        1     0.00000   32.37516    2.54347    0.00000
      25      444        1     0.00000   35.97072    2.54347    0.00000
      26      444        1     0.00000   39.56628    2.54347    0.00000
      27      444        1     0.00000   43.16184    2.54347    0.00000
      28      444        1     0.00000   46.76244    2.54347    0.00000
      29      444        1     0.00000    0.00000    5.08693    0.00000
      30      444        1     0.00000    3.59556    5.08693    0.00000
      31      444        1     0.00000    7.19616    5.08693    0.00000
      32      444        1     0.00000   10.79172    5.08693    0.00000
      33      444        1     0.00000   14.38728    5.08693    0.00000
      34      444        1     0.00000   17.98284    5.08693    0.00000
      35      444        1     0.00000   21.58344    5.08693    0.00000
      36      444        1     0.00000   25.17900    5.08693    0.00000
      37      444        1     0.00000   28.77456    5.08693    0.00000
      38      444        1     0.00000   32.37516    5.08693    0.00000
      39      444        1     0.00000   35.97072    5.08693    0.00000
      40      444        1     0.00000   39.56628    5.08693    0.00000
      41      444        1     0.00000   43.16184    5.08693    0.00000
      42      444        1     0.00000   46.76244    5.08693    0.00000
      43      444        1     0.00000    0.00000    7.63040    0.00000
      44      444        1     0.00000    3.59556    7.63040    0.00000
      45      444        1     0.00000    7.19616    7.63040    0.00000
      46      444        1     0.00000   10.79172    7.63040    0.00000
      47      444        1     0.00000   14.38728    7.63040    0.00000
      48      444        1     0.00000   17.98284    7.63040    0.00000
      49      444        1     0.00000   21.58344    7.63040    0.00000
      50      444        1     0.00000   25.17900    7.63040    0.00000
      51      444        1     0.00000   28.77456    7.63040    0.00000
      52      444        1     0.00000   32.37516    7.63040    0.00000
      53      444        1     0.00000   35.97072    7.63040    0.00000
      54      444        1     0.00000   39.56628    7.63040    0.00000
      55      444        1     0.00000   43.16184    7.63040    0.00000
      56      444        1     0.00000   46.76244    7.63040    0.00000
      57      444        1     0.00000    0.00000   10.17386    0.00000
      58      444        1     0.00000    3.59556   10.17386    0.00000
      59      444        1     0.00000    7.19616   10.17386    0.00000
      60      444        1     0.00000   10.79172   10.17386    0.00000
      61      444        1     0.00000   14.38728   10.17386    0.00000
      62      444        1     0.00000   17.98284   10.17386    0.00000
      63      444        1     0.00000   21.58344   10.17386    0.00000
      64      444        1     0.00000   25.17900   10.17386    0.00000
      65      444        1     0.00000   28.77456   10.17386    0.00000
      66      444        1     0.00000   32.37516   10.17386    0.00000
      67      444        1     0.00000   35.97072   10.17386    0.00000
      68      444        1     0.00000   39.56628   10.17386    0.00000
      69      444        1     0.00000   43.16184   10.17386    0.00000
      70      444        1     0.00000   46.76244   10.17386    0.00000
      71      444        1     0.00000    0.00000   12.71733    0.00000
      72      444        1     0.00000    3.59556   12.71733    0.00000
      73      444        1     0.00000    7.19616   12.71733    0.00000
      74      444        1     0.00000   10.79172   12.71733    0.00000
      75      444        1     0.00000   14.38728   12.71733    0.00000
      76      444        1     0.00000   17.98284   12.71733    0.00000
      77      444        1     0.00000   21.58344   12.71733    0.00000
      78      444        1     0.00000   25.17900   12.71733    0.00000
      79      444        1     0.00000   28.77456   12.71733    0.00000
      80      444        1     0.00000   32.37516   12.71733    0.00000
      81      444        1     0.00000   35.97072   12.71733    0.00000
      82      444        1     0.00000   39.56628   12.71733    0.00000
      83      444        1     0.00000   43.16184   12.71733    0.00000
      84      444        1     0.00000   46.76244   12.71733    0.00000
      85      444        1     0.00000    0.00000   15.26079    0.00000
      86      444        1     0.00000    3.59556   15.26079    0.00000
      87      444        1     0.00000    7.19616   15.26079    0.00000
      88      444        1     0.00000   10.79172   15.26079    0.00000
      89      444        1     0.00000   14.38728   15.26079    0.00000
      90      444        1     0.00000   17.98284   15.26079    0.00000
      91      444        1     0.00000   21.58344   15.26079    0.00000
      92      444        1     0.00000   25.17900   15.26079    0.00000
      93      444        1     0.00000   28.77456   15.26079    0.00000
      94      444        1     0.00000   32.37516   15.26079    0.00000
      95      444        1     0.00000   35.97072   15.26079    0.00000
      96      444        1     0.00000   39.56628   15.26079    0.00000
      97      444        1     0.00000   43.16184   15.26079    0.00000
      98      444        1     0.00000   46.76244   15.26079    0.00000
      99      444        1     0.00000    0.00000   17.80426    0.00000
     100      444        1     0.00000    3.59556   17.80426    0.00000
     101      444        1     0.00000    7.19616   17.80426    0.00000
     102      444        1     0.00000   10.79172   17.80426    0.00000
     103      444        1     0.00000   14.38728   17.80426    0.00000
     104      444        1     0.00000   17.98284   17.80426    0.00000
     105      444        1     0.00000   21.58344   17.80426    0.00000
     106      444        1     0.00000   25.17900   17.80426    0.00000
     107      444        1     0.00000   28.77456   17.80426    0.00000
     108      444        1     0.00000   32.37516   17.80426    0.00000
     109      444        1     0.00000   35.97072   17.80426    0.00000
     110      444        1     0.00000   39.56628   17.80426    0.00000
     111      444        1     0.00000   43.16184   17.80426    0.00000
     112      444        1     0.00000   46.76244   17.80426    0.00000
     113      444        1     0.00000    0.00000   20.34772    0.00000
     114      444        1     0.00000    3.59556   20.34772    0.00000
     115      444        1     0.00000    7.19616   20.34772    0.00000
     116      444        1     0.00000   10.79172   20.34772    0.00000
     117      444        1     0.00000   14.38728   20.34772    0.00000
     118      444        1     0.00000   17.98284   20.34772    0.00000
     119      444        1     0.00000   21.58344   20.34772    0.00000
     120      444        1     0.00000   25.17900   20.34772    0.00000
     121      444        1     0.00000   28.77456   20.34772    0.00000
     122      444        1     0.00000   32.37516   20.34772    0.00000
     123      444        1     0.00000   35.97072   20.34772    0.00000
     124      444        1     0.00000   39.56628   20.34772    0.00000
     125      444        1     0.00000   43.16184   20.34772    0.00000
     126      444        1     0.00000   46.76244   20.34772    0.00000
     127      444        1     0.00000    0.00000   22.89119    0.00000
     128      444        1     0.00000    3.59556   22.89119    0.00000
     129      444        1     0.00000    7.19616   22.89119    0.00000
     130      444        1     0.00000   10.79172   22.89119    0.00000
     131      444        1     0.00000   14.38728   22.89119    0.00000
     132      444        1     0.00000   17.98284   22.89119    0.00000
     133      444        1     0.00000   21.58344   22.89119    0.00000
     134      444        1     0.00000   25.17900   22.89119    0.00000
     135      444        1     0.00000   28.77456   22.89119    0.00000
     136      444        1     0.00000   32.37516   22.89119    0.00000
     137      444        1     0.00000   35.97072   22.89119    0.00000
     138      444        1     0.00000   39.56628   22.89119    0.00000
     139      444        1     0.00000   43.16184   22.89119    0.00000
     140      444        1     0.00000   46.76244   22.89119    0.00000
     141      444        1     0.00000    0.00000   25.43465    0.00000
     142      444        1     0.00000    3.59556   25.43465    0.00000
     143      444        1     0.00000    7.19616   25.43465    0.00000
     144      444        1     0.00000   10.79172   25.43465    0.00000
     145      444        1     0.00000   14.38728   25.43465    0.00000
     146      444        1     0.00000   17.98284   25.43465    0.00000
     147      444        1     0.00000   21.58344   25.43465    0.00000
     148      444        1     0.00000   25.17900   25.43465    0.00000
     149      444        1     0.00000   28.77456   25.43465    0.00000
     150      444        1     0.00000   32.37516   25.43465    0.00000
     151      444        1     0.00000   35.97072   25.43465    0.00000
     152      444        1     0.00000   39.56628   25.43465    0.00000
     153      444        1     0.00000   43.16184   25.43465    0.00000
     154      444        1     0.00000   46.76244   25.43465    0.00000
     155      444        1     0.00000    0.00000   27.97812    0.00000
     156      444        1     0.00000    3.59556   27.97812    0.00000
     157      444        1     0.00000    7.19616   27.97812    0.00000
     158      444        1     0.00000   10.79172   27.97812    0.00000
     159      444        1     0.00000   14.38728   27.97812    0.00000
     160      444        1     0.00000   17.98284   27.97812    0.00000
     161      444        1     0.00000   21.58344   27.97812    0.00000
     162      444        1     0.00000   25.17900   27.97812    0.00000
     163      444        1     0.00000   28.77456   27.97812    0.00000
     164      444        1     0.00000   32.37516   27.97812    0.00000
     165      444        1     0.00000   35.97072   27.97812    0.00000
     166      444        1     0.00000   39.56628   27.97812    0.00000
     167      444        1     0.00000   43.16184   27.97812    0.00000
     168      444        1     0.00000   46.76244   27.97812    0.00000
     169      444        1     0.00000    0.00000   30.52158    0.00000
     170      444        1     0.00000    3.59556   30.52158    0.00000
     171      444        1     0.00000    7.19616   30.52158    0.00000
     172      444        1     0.00000   10.79172   30.52158    0.00000
     173      444        1     0.00000   14.38728   30.52158    0.00000
     174      444        1     0.00000   17.98284   30.52158    0.00000
     175      444        1     0.00000   21.58344   30.52158    0.00000
     176      444        1     0.00000   25.17900   30.52158    0.00000
     177      444        1     0.00000   28.77456   30.52158    0.00000
     178      444        1     0.00000   32.37516   30.52158    0.00000
     179      444        1     0.00000   35.97072   30.52158    0.00000
     180      444        1     0.00000   39.56628   30.52158    0.00000
     181      444        1     0.00000   43.16184   30.52158    0.00000
     182      444        1     0.00000   46.76244   30.52158    0.00000
     183      444        1     0.00000    0.00000   33.06505    0.00000
     184      444        1     0.00000    3.59556   33.06505    0.00000
     185      444        1     0.00000    7.19616   33.06505    0.00000
     186      444        1     0.00000   10.79172   33.06505    0.00000
     187      444        1     0.00000   14.38728   33.06505    0.00000
     188      444        1     0.00000   17.98284   33.06505    0.00000
     189      444        1     0.00000   21.58344   33.06505    0.00000
     190      444        1     0.00000   25.17900   33.06505    0.00000
     191      444        1     0.00000   28.77456   33.06505    0.00000
     192      444        1     0.00000   32.37516   33.06505    0.00000
     193      444        1     0.00000   35.97072   33.06505    0.00000
     194      444        1     0.00000   39.56628   33.06505    0.00000
     195      444        1     0.00000   43.16184   33.06505    0.00000
     196      444        1     0.00000   46.76244   33.06505    0.00000
     197      444        1     0.00000    0.00000   35.60851    0.00000
     198      444        1     0.00000    3.59556   35.60851    0.00000
     199      444        1     0.00000    7.19616   35.60851    0.00000
     200      444        1     0.00000   10.79172   35.60851    0.00000
     201      444        1     0.00000   14.38728   35.60851    0.00000
     202      444        1     0.00000   17.98284   35.60851    0.00000
     203      444        1     0.00000   21.58344   35.60851    0.00000
     204      444        1     0.00000   25.17900   35.60851    0.00000
     205      444        1     0.00000   28.77456   35.60851    0.00000
     206      444        1     0.00000   32.37516   35.60851    0.00000
     207      444        1     0.00000   35.97072   35.60851    0.00000
     208      444        1     0.00000   39.56628   35.60851    0.00000
     209      444        1     0.00000   43.16184   35.60851    0.00000
     210      444        1     0.00000   46.76244   35.60851    0.00000
     211      444        1     0.00000    0.00000   38.15198    0.00000
     212      444        1     0.00000    3.59556   38.15198    0.00000
     213      444        1     0.00000    7.19616   38.15198    0.00000
     214      444        1     0.00000   10.79172   38.15198    0.00000
     215      444        1     0.00000   14.38728   38.15198    0.00000
     216      444        1     0.00000   17.98284   38.15198    0.00000
     217      444        1     0.00000   21.58344   38.15198    0.00000
     218      444        1     0.00000   25.17900   38.15198    0.00000
     219      444        1     0.00000   28.77456   38.15198    0.00000
     220      444        1     0.00000   32.37516   38.15198    0.00000
     221      444        1     0.00000   35.97072   38.15198    0.00000
     222      444        1     0.00000   39.56628   38.15198    0.00000
     223      444        1     0.00000   43.16184   38.15198    0.00000
     224      444        1     0.00000   46.76244   38.15198    0.00000
     225      444        1     0.00000    0.00000   40.69544    0.00000
     226      444        1     0.00000    3.59556   40.69544    0.00000
     227      444        1     0.00000    7.19616   40.69544    0.00000
     228      444        1     0.00000   10.79172   40.69544    0.00000
     229      444        1     0.00000   14.38728   40.69544    0.00000
     230      444        1     0.00000   17.98284   40.69544    0.00000
     231      444        1     0.00000   21.58344   40.69544    0.00000
     232      444        1     0.00000   25.17900   40.69544    0.00000
     233      444        1     0.00000   28.77456   40.69544    0.00000
     234      444        1     0.00000   32.37516   40.69544    0.00000
     235      444        1     0.00000   35.97072   40.69544    0.00000
     236      444        1     0.00000   39.56628   40.69544    0.00000
     237      444        1     0.00000   43.16184   40.69544    0.00000
     238      444        1     0.00000   46.76244   40.69544    0.00000
     239      444        1     0.00000    0.00000   43.23891    0.00000
     240      444        1     0.00000    3.59556   43.23891    0.00000
     241      444        1     0.00000    7.19616   43.23891    0.00000
     242      444        1     0.00000   10.79172   43.23891    0.00000
     243      444        1     0.00000   14.38728   43.23891    0.00000
     244      444        1     0.00000   17.98284   43.23891    0.00000
     245      444        1     0.00000   21.58344   43.23891    0.00000
     246      444        1     0.00000   25.17900   43.23891    0.00000
     247      444        1     0.00000   28.77456   43.23891    0.00000
     248      444        1     0.00000   32.37516   43.23891    0.00000
     249      444        1     0.00000   35.97072   43.23891    0.00000
     250      444        1     0.00000   39.56628   43.23891    0.00000
     251      444        1     0.00000   43.16184   43.23891    0.00000
     252      444        1     0.00000   46.76244   43.23891    0.00000
     253      444        1     0.00000    0.00000   45.78237    0.00000
     254      444        1     0.00000    3.59556   45.78237    0.00000
     255      444        1     0.00000    7.19616   45.78237    0.00000
     256      444        1     0.00000   10.79172   45.78237    0.00000
     257      444        1     0.00000   14.38728   45.78237    0.00000
     258      444        1     0.00000   17.98284   45.78237    0.00000
     259      444        1     0.00000   21.58344   45.78237    0.00000
     260      444        1     0.00000   25.17900   45.78237    0.00000
     261      444        1     0.00000   28.77456   45.78237    0.00000
     262      444        1     0.00000   32.37516   45.78237    0.00000
     263      444        1     0.00000   35.97072   45.78237    0.00000
     264      444        1     0.00000   39.56628   45.78237    0.00000
     265      444        1     0.00000   43.16184   45.78237    0.00000
     266      444        1     0.00000   46.76244   45.78237    0.00000
     267      444        1     0.00000    0.00000   48.32583    0.00000
     268      444        1     0.00000    3.59556   48.32583    0.00000
     269      444        1     0.00000    7.19616   48.32583    0.00000
     270      444        1     0.00000   10.79172   48.32583    0.00000
     271      444        1     0.00000   14.38728   48.32583    0.00000
     272      444        1     0.00000   17.98284   48.32583    0.00000
     273      444        1     0.00000   21.58344   48.32583    0.00000
     274      444        1     0.00000   25.17900   48.32583    0.00000
     275      444        1     0.00000   28.77456   48.32583    0.00000
     276      444        1     0.00000   32.37516   48.32583    0.00000
     277      444        1     0.00000   35.97072   48.32583    0.00000
     278      444        1     0.00000   39.56628   48.32583    0.00000
     279      444        1     0.00000   43.16184   48.32583    0.00000
     280      444        1     0.00000   46.76244   48.32583    0.00000
     281      444        1     0.00000    1.79778    1.27173    1.27000
     282      444        1     0.00000    5.39334    1.27173    1.27000
     283      444        1     0.00000    8.99394    1.27173    1.27000
     284      444        1     0.00000   12.58950    1.27173    1.27000
     285      444        1     0.00000   16.18506    1.27173    1.27000
     286      444        1     0.00000   19.78566    1.27173    1.27000
     287      444        1     0.00000   23.38122    1.27173    1.27000
     288      444        1     0.00000   26.97678    1.27173    1.27000
     289      444        1     0.00000   30.57234    1.27173    1.27000
     290      444        1     0.00000   34.17294    1.27173    1.27000
     291      444        1     0.00000   37.76850    1.27173    1.27000
     292      444        1     0.00000   41.36406    1.27173    1.27000
     293      444        1     0.00000   44.96466    1.27173    1.27000
     294      444        1     0.00000   48.56022    1.27173    1.27000
     295      444        1     0.00000    1.79778    3.81520    1.27000
     296      444        1     0.00000    5.39334    3.81520    1.27000
     297      444        1     0.00000    8.99394    3.81520    1.27000
     298      444        1     0.00000   12.58950    3.81520    1.27000
     299      444        1     0.00000   16.18506    3.81520    1.27000
     300      444        1     0.00000   19.78566    3.81520    1.27000
     301      444        1     0.00000   23.38122    3.81520    1.27000
     302      444        1     0.00000   26.97678    3.81520    1.27000
     303      444        1     0.00000   30.57234    3.81520    1.27000
     304      444        1     0.00000   34.17294    3.81520    1.27000
     305      444        1     0.00000   37.76850    3.81520    1.27000
     306      444        1     0.00000   41.36406    3.81520    1.27000
     307      444        1     0.00000   44.96466    3.81520    1.27000
     308      444        1     0.00000   48.56022    3.81520    1.27000
     309      444        1     0.00000    1.79778    6.35866    1.27000
     310      444        1     0.00000    5.39334    6.35866    1.27000
     311      444        1     0.00000    8.99394    6.35866    1.27000
     312      444        1     0.00000   12.58950    6.35866    1.27000
     313      444        1     0.00000   16.18506    6.35866    1.27000
     314      444        1     0.00000   19.78566    6.35866    1.27000
     315      444        1     0.00000   23.38122    6.35866    1.27000
     316      444        1     0.00000   26.97678    6.35866    1.27000
     317      444        1     0.00000   30.57234    6.35866    1.27000
     318      444        1     0.00000   34.17294    6.35866    1.27000
     319      444        1     0.00000   37.76850    6.35866    1.27000
     320      444        1     0.00000   41.36406    6.35866    1.27000
     321      444        1     0.00000   44.96466    6.35866    1.27000
     322      444        1     0.00000   48.56022    6.35866    1.27000
     323      444        1     0.00000    1.79778    8.90213    1.27000
     324      444        1     0.00000    5.39334    8.90213    1.27000
     325      444        1     0.00000    8.99394    8.90213    1.27000
     326      444        1     0.00000   12.58950    8.90213    1.27000
     327      444        1     0.00000   16.18506    8.90213    1.27000
     328      444        1     0.00000   19.78566    8.90213    1.27000
     329      444        1     0.00000   23.38122    8.90213    1.27000
     330      444        1     0.00000   26.97678    8.90213    1.27000
     331      444        1     0.00000   30.57234    8.90213    1.27000
     332      444        1     0.00000   34.17294    8.90213    1.27000
     333      444        1     0.00000   37.76850    8.90213    1.27000
     334      444        1     0.00000   41.36406    8.90213    1.27000
     335      444        1     0.00000   44.96466    8.90213    1.27000
     336      444        1     0.00000   48.56022    8.90213    1.27000
     337      444        1     0.00000    1.79778   11.44559    1.27000
     338      444        1     0.00000    5.39334   11.44559    1.27000
     339      444        1     0.00000    8.99394   11.44559    1.27000
     340      444        1     0.00000   12.58950   11.44559    1.27000
     341      444        1     0.00000   16.18506   11.44559    1.27000
     342      444        1     0.00000   19.78566   11.44559    1.27000
     343      444        1     0.00000   23.38122   11.44559    1.27000
     344      444        1     0.00000   26.97678   11.44559    1.27000
     345      444        1     0.00000   30.57234   11.44559    1.27000
     346      444        1     0.00000   34.17294   11.44559    1.27000
     347      444        1     0.00000   37.76850   11.44559    1.27000
     348      444        1     0.00000   41.36406   11.44559    1.27000
     349      444        1     0.00000   44.96466   11.44559    1.27000
     350      444        1     0.00000   48.56022   11.44559    1.27000
     351      444        1     0.00000    1.79778   13.98906    1.27000
     352      444        1     0.00000    5.39334   13.98906    1.27000
     353      444        1     0.00000    8.99394   13.98906    1.27000
     354      444        1     0.00000   12.58950   13.98906    1.27000
     355      444        1     0.00000   16.18506   13.98906    1.27000
     356      444        1     0.00000   19.78566   13.98906    1.27000
     357      444        1     0.00000   23.38122   13.98906    1.27000
     358      444        1     0.00000   26.97678   13.98906    1.27000
     359      444        1     0.00000   30.57234   13.98906    1.27000
     360      444        1     0.00000   34.17294   13.98906    1.27000
     361      444        1     0.00000   37.76850   13.98906    1.27000
     362      444        1     0.00000   41.36406   13.98906    1.27000
     363      444        1     0.00000   44.96466   13.98906    1.27000
     364      444        1     0.00000   48.56022   13.98906    1.27000
     365      444        1     0.00000    1.79778   16.53252    1.27000
     366      444        1     0.00000    5.39334   16.53252    1.27000
     367      444        1     0.00000    8.99394   16.53252    1.27000
     368      444        1     0.00000   12.58950   16.53252    1.27000
     369      444        1     0.00000   16.18506   16.53252    1.27000
     370      444        1     0.00000   19.78566   16.53252    1.27000
     371      444        1     0.00000   23.38122   16.53252    1.27000
     372      444        1     0.00000   26.97678   16.53252    1.27000
     373      444        1     0.00000   30.57234   16.53252    1.27000
     374      444        1     0.00000   34.17294   16.53252    1.27000
     375      444        1     0.00000   37.76850   16.53252    1.27000
     376      444        1     0.00000   41.36406   16.53252    1.27000
     377      444        1     0.00000   44.96466   16.53252    1.27000
     378      444        1     0.00000   48.56022   16.53252    1.27000
     379      444        1     0.00000    1.79778   19.07599    1.27000
     380      444        1     0.00000    5.39334   19.07599    1.27000
     381      444        1     0.00000    8.99394   19.07599    1.27000
     382      444        1     0.00000   12.58950   19.07599    1.27000
     383      444        1     0.00000   16.18506   19.07599    1.27000
     384      444        1     0.00000   19.78566   19.07599    1.27000