Created on Tue Jan 23 19:19:50 2018 

         804 atoms
        3213 bonds
       24858 angles
         180 dihedrals
         108 impropers

           3 atom types
           3 bond types
           3 angle types
           1 dihedral types
           1 improper types
           0.000000  35.970000 xlo xhi
           0.000000  38.152000 ylo yhi
           0.000000  20.087000 zlo zhi
           0.000000   0.000000   0.000000 xy xz yz

Masses

    1   106.420000000 # Pd4+2
    2    12.010700000 # C_R
    3     1.007940000 # H_

Bond Coeffs

    1      178.553473        2.676000  # Pd4+2 Pd4+2
    2      462.655054        1.379256  # C_R C_R
    3      357.440381        1.081418  # C_R H_

Angle Coeffs

    1       26.446752               1               4 # Pd4+2 Pd4+2 Pd4+2
    2      117.010657              -1               3 # C_R C_R C_R
    3       76.817955              -1               3 # C_R C_R H_

Dihedral Coeffs

    1        1.497136              -1               2 # C_R C_R C_R C_R

Improper Coeffs

    1        2.000000        1.000000       -1.000000        0.000000               0 # C_R C_R C_R C_R

Pair Coeffs

    1        0.048000        2.582715 # Pd4+2 Pd4+2
    2        0.105000        3.430851 # C_R C_R
    3        0.044000        2.571134 # H_ H_

Atoms

       1      444        1     0.00000    0.00000    0.00000    0.00000
       2      444        1     0.00000    3.59700    0.00000    0.00000
       3      444        1     0.00000    7.19400    0.00000    0.00000
       4      444        1     0.00000   10.79100    0.00000    0.00000
       5      444        1     0.00000   14.38800    0.00000    0.00000
       6      444        1     0.00000   17.98500    0.00000    0.00000
       7      444        1     0.00000   21.58200    0.00000    0.00000
       8      444        1     0.00000   25.17900    0.00000    0.00000
       9      444        1     0.00000   28.77600    0.00000    0.00000
      10      444        1     0.00000   32.37300    0.00000    0.00000
      11      444        1     0.00000    0.00000    2.54474    0.00000
      12      444        1     0.00000    3.59700    2.54474    0.00000
      13      444        1     0.00000    7.19400    2.54474    0.00000
      14      444        1     0.00000   10.79100    2.54474    0.00000
      15      444        1     0.00000   14.38800    2.54474    0.00000
      16      444        1     0.00000   17.98500    2.54474    0.00000
      17      444        1     0.00000   21.58200    2.54474    0.00000
      18      444        1     0.00000   25.17900    2.54474    0.00000
      19      444        1     0.00000   28.77600    2.54474    0.00000
      20      444        1     0.00000   32.37300    2.54474    0.00000
      21      444        1     0.00000    0.00000    5.08566    0.00000
      22      444        1     0.00000    3.59700    5.08566    0.00000
      23      444        1     0.00000    7.19400    5.08566    0.00000
      24      444        1     0.00000   10.79100    5.08566    0.00000
      25      444        1     0.00000   14.38800    5.08566    0.00000
      26      444        1     0.00000   17.98500    5.08566    0.00000
      27      444        1     0.00000   21.58200    5.08566    0.00000
      28      444        1     0.00000   25.17900    5.08566    0.00000
      29      444        1     0.00000   28.77600    5.08566    0.00000
      30      444        1     0.00000   32.37300    5.08566    0.00000
      31      444        1     0.00000    0.00000    7.63040    0.00000
      32      444        1     0.00000    3.59700    7.63040    0.00000
      33      444        1     0.00000    7.19400    7.63040    0.00000
      34      444        1     0.00000   10.79100    7.63040    0.00000
      35      444        1     0.00000   14.38800    7.63040    0.00000
      36      444        1     0.00000   17.98500    7.63040    0.00000
      37      444        1     0.00000   21.58200    7.63040    0.00000
      38      444        1     0.00000   25.17900    7.63040    0.00000
      39      444        1     0.00000   28.77600    7.63040    0.00000
      40      444        1     0.00000   32.37300    7.63040    0.00000
      41      444        1     0.00000    0.00000   10.17514    0.00000
      42      444        1     0.00000    3.59700   10.17514    0.00000
      43      444        1     0.00000    7.19400   10.17514    0.00000
      44      444        1     0.00000   10.79100   10.17514    0.00000
      45      444        1     0.00000   14.38800   10.17514    0.00000
      46      444        1     0.00000   17.98500   10.17514    0.00000
      47      444        1     0.00000   21.58200   10.17514    0.00000
      48      444        1     0.00000   25.17900   10.17514    0.00000
      49      444        1     0.00000   28.77600   10.17514    0.00000
      50      444        1     0.00000   32.37300   10.17514    0.00000
      51      444        1     0.00000    0.00000   12.71606    0.00000
      52      444        1     0.00000    3.59700   12.71606    0.00000
      53      444        1     0.00000    7.19400   12.71606    0.00000
      54      444        1     0.00000   10.79100   12.71606    0.00000
      55      444        1     0.00000   14.38800   12.71606    0.00000
      56      444        1     0.00000   17.98500   12.71606    0.00000
      57      444        1     0.00000   21.58200   12.71606    0.00000
      58      444        1     0.00000   25.17900   12.71606    0.00000
      59      444        1     0.00000   28.77600   12.71606    0.00000
      60      444        1     0.00000   32.37300   12.71606    0.00000
      61      444        1     0.00000    0.00000   15.26080    0.00000
      62      444        1     0.00000    3.59700   15.26080    0.00000
      63      444        1     0.00000    7.19400   15.26080    0.00000
      64      444        1     0.00000   10.79100   15.26080    0.00000
      65      444        1     0.00000   14.38800   15.26080    0.00000
      66      444        1     0.00000   17.98500   15.26080    0.00000
      67      444        1     0.00000   21.58200   15.26080    0.00000
      68      444        1     0.00000   25.17900   15.26080    0.00000
      69      444        1     0.00000   28.77600   15.26080    0.00000
      70      444        1     0.00000   32.37300   15.26080    0.00000
      71      444        1     0.00000    0.00000   17.80554    0.00000
      72      444        1     0.00000    3.59700   17.80554    0.00000
      73      444        1     0.00000    7.19400   17.80554    0.00000
      74      444        1     0.00000   10.79100   17.80554    0.00000
      75      444        1     0.00000   14.38800   17.80554    0.00000
      76      444        1     0.00000   17.98500   17.80554    0.00000
      77      444        1     0.00000   21.58200   17.80554    0.00000
      78      444        1     0.00000   25.17900   17.80554    0.00000
      79      444        1     0.00000   28.77600   17.80554    0.00000
      80      444        1     0.00000   32.37300   17.80554    0.00000
      81      444        1     0.00000    0.00000   20.34646    0.00000
      82      444        1     0.00000    3.59700   20.34646    0.00000
      83      444        1     0.00000    7.19400   20.34646    0.00000
      84      444        1     0.00000   10.79100   20.34646    0.00000
      85      444        1     0.00000   14.38800   20.34646    0.00000
      86      444        1     0.00000   17.98500   20.34646    0.00000
      87      444        1     0.00000   21.58200   20.34646    0.00000
      88      444        1     0.00000   25.17900   20.34646    0.00000
      89      444        1     0.00000   28.77600   20.34646    0.00000
      90      444        1     0.00000   32.37300   20.34646    0.00000
      91      444        1     0.00000    0.00000   22.89120    0.00000
      92      444        1     0.00000    3.59700   22.89120    0.00000
      93      444        1     0.00000    7.19400   22.89120    0.00000
      94      444        1     0.00000   10.79100   22.89120    0.00000
      95      444        1     0.00000   14.38800   22.89120    0.00000
      96      444        1     0.00000   17.98500   22.89120    0.00000
      97      444        1     0.00000   21.58200   22.89120    0.00000
      98      444        1     0.00000   25.17900   22.89120    0.00000
      99      444        1     0.00000   28.77600   22.89120    0.00000
     100      444        1     0.00000   32.37300   22.89120    0.00000
     101      444        1     0.00000    0.00000   25.43594    0.00000
     102      444        1     0.00000    3.59700   25.43594    0.00000
     103      444        1     0.00000    7.19400   25.43594    0.00000
     104      444        1     0.00000   10.79100   25.43594    0.00000
     105      444        1     0.00000   14.38800   25.43594    0.00000
     106      444        1     0.00000   17.98500   25.43594    0.00000
     107      444        1     0.00000   21.58200   25.43594    0.00000
     108      444        1     0.00000   25.17900   25.43594    0.00000
     109      444        1     0.00000   28.77600   25.43594    0.00000
     110      444        1     0.00000   32.37300   25.43594    0.00000
     111      444        1     0.00000    0.00000   27.97686    0.00000
     112      444        1     0.00000    3.59700   27.97686    0.00000
     113      444        1     0.00000    7.19400   27.97686    0.00000
     114      444        1     0.00000   10.79100   27.97686    0.00000
     115      444        1     0.00000   14.38800   27.97686    0.00000
     116      444        1     0.00000   17.98500   27.97686    0.00000
     117      444        1     0.00000   21.58200   27.97686    0.00000
     118      444        1     0.00000   25.17900   27.97686    0.00000
     119      444        1     0.00000   28.77600   27.97686    0.00000
     120      444        1     0.00000   32.37300   27.97686    0.00000
     121      444        1     0.00000    0.00000   30.52160    0.00000
     122      444        1     0.00000    3.59700   30.52160    0.00000
     123      444        1     0.00000    7.19400   30.52160    0.00000
     124      444        1     0.00000   10.79100   30.52160    0.00000
     125      444        1     0.00000   14.38800   30.52160    0.00000
     126      444        1     0.00000   17.98500   30.52160    0.00000
     127      444        1     0.00000   21.58200   30.52160    0.00000
     128      444        1     0.00000   25.17900   30.52160    0.00000
     129      444        1     0.00000   28.77600   30.52160    0.00000
     130      444        1     0.00000   32.37300   30.52160    0.00000
     131      444        1     0.00000    0.00000   33.06634    0.00000
     132      444        1     0.00000    3.59700   33.06634    0.00000
     133      444        1     0.00000    7.19400   33.06634    0.00000
     134      444        1     0.00000   10.79100   33.06634    0.00000
     135      444        1     0.00000   14.38800   33.06634    0.00000
     136      444        1     0.00000   17.98500   33.06634    0.00000
     137      444        1     0.00000   21.58200   33.06634    0.00000
     138      444        1     0.00000   25.17900   33.06634    0.00000
     139      444        1     0.00000   28.77600   33.06634    0.00000
     140      444        1     0.00000   32.37300   33.06634    0.00000
     141      444        1     0.00000    0.00000   35.60726    0.00000
     142      444        1     0.00000    3.59700   35.60726    0.00000
     143      444        1     0.00000    7.19400   35.60726    0.00000
     144      444        1     0.00000   10.79100   35.60726    0.00000
     145      444        1     0.00000   14.38800   35.60726    0.00000
     146      444        1     0.00000   17.98500   35.60726    0.00000
     147      444        1     0.00000   21.58200   35.60726    0.00000
     148      444        1     0.00000   25.17900   35.60726    0.00000
     149      444        1     0.00000   28.77600   35.60726    0.00000
     150      444        1     0.00000   32.37300   35.60726    0.00000
     151      444        1     0.00000    1.79850    1.27046    1.69333
     152      444        1     0.00000    5.39550    1.27046    1.69333
     153      444        1     0.00000    8.99250    1.27046    1.69333
     154      444        1     0.00000   12.58950    1.27046    1.69333
     155      444        1     0.00000   16.18650    1.27046    1.69333
     156      444        1     0.00000   19.78350    1.27046    1.69333
     157      444        1     0.00000   23.38050    1.27046    1.69333
     158      444        1     0.00000   26.97750    1.27046    1.69333
     159      444        1     0.00000   30.57450    1.27046    1.69333
     160      444        1     0.00000   34.17150    1.27046    1.69333
     161      444        1     0.00000    1.79850    3.81520    1.69333
     162      444        1     0.00000    5.39550    3.81520    1.69333
     163      444        1     0.00000    8.99250    3.81520    1.69333
     164      444        1     0.00000   12.58950    3.81520    1.69333
     165      444        1     0.00000   16.18650    3.81520    1.69333
     166      444        1     0.00000   19.78350    3.81520    1.69333
     167      444        1     0.00000   23.38050    3.81520    1.69333
     168      444        1     0.00000   26.97750    3.81520    1.69333
     169      444        1     0.00000   30.57450    3.81520    1.69333
     170      444        1     0.00000   34.17150    3.81520    1.69333
     171      444        1     0.00000    1.79850    6.35994    1.69333
     172      444        1     0.00000    5.39550    6.35994    1.69333
     173      444        1     0.00000    8.99250    6.35994    1.69333
     174      444        1     0.00000   12.58950    6.35994    1.69333
     175      444        1     0.00000   16.18650    6.35994    1.69333
     176      444        1     0.00000   19.78350    6.35994    1.69333
     177      444        1     0.00000   23.38050    6.35994    1.69333
     178      444        1     0.00000   26.97750    6.35994    1.69333
     179      444        1     0.00000   30.57450    6.35994    1.69333
     180      444        1     0.00000   34.17150    6.35994    1.69333
     181      444        1     0.00000    1.79850    8.90086    1.69333
     182      444        1     0.00000    5.39550    8.90086    1.69333
     183      444        1     0.00000    8.99250    8.90086    1.69333
     184      444        1     0.00000   12.58950    8.90086    1.69333
     185      444        1     0.00000   16.18650    8.90086    1.69333
     186      444        1     0.00000   19.78350    8.90086    1.69333
     187      444        1     0.00000   23.38050    8.90086    1.69333
     188      444        1     0.00000   26.97750    8.90086    1.69333
     189      444        1     0.00000   30.57450    8.90086    1.69333
     190      444        1     0.00000   34.17150    8.90086    1.69333
     191      444        1     0.00000    1.79850   11.44560    1.69333
     192      444        1     0.00000    5.39550   11.44560    1.69333
     193      444        1     0.00000    8.99250   11.44560    1.69333
     194      444        1     0.00000   12.58950   11.44560    1.69333
     195      444        1     0.00000   16.18650   11.44560    1.69333
     196      444        1     0.00000   19.78350   11.44560    1.69333
     197      444        1     0.00000   23.38050   11.44560    1.69333
     198      444        1     0.00000   26.97750   11.44560    1.69333
     199      444        1     0.00000   30.57450   11.44560    1.69333
     200      444        1     0.00000   34.17150   11.44560    1.69333
     201      444        1     0.00000    1.79850   13.99034    1.69333
     202      444        1     0.00000    5.39550   13.99034    1.69333
     203      444        1     0.00000    8.99250   13.99034    1.69333
     204      444        1     0.00000   12.58950   13.99034    1.69333
     205      444        1     0.00000   16.18650   13.99034    1.69333
     206      444        1     0.00000   19.78350   13.99034    1.69333
     207      444        1     0.00000   23.38050   13.99034    1.69333
     208      444        1     0.00000   26.97750   13.99034    1.69333
     209      444        1     0.00000   30.57450   13.99034    1.69333
     210      444        1     0.00000   34.17150   13.99034    1.69333
     211      444        1     0.00000    1.79850   16.53126    1.69333
     212      444        1     0.00000    5.39550   16.53126    1.69333
     213      444        1     0.00000    8.99250   16.53126    1.69333
     214      444        1     0.00000   12.58950   16.53126    1.69333
     215      444        1     0.00000   16.18650   16.53126    1.69333
     216      444        1     0.00000   19.78350   16.53126    1.69333
     217      444        1     0.00000   23.38050   16.53126    1.69333
     218      444        1     0.00000   26.97750   16.53126    1.69333
     219      444        1     0.00000   30.57450   16.53126    1.69333
     220      444        1     0.00000   34.17150   16.53126    1.69333
     221      444        1     0.00000    1.79850   19.07600    1.69333
     222      444        1     0.00000    5.39550   19.07600    1.69333
     223      444        1     0.00000    8.99250   19.07600    1.69333
     224      444        1     0.00000   12.58950   19.07600    1.69333
     225      444        1     0.00000   16.18650   19.07600    1.69333
     226      444        1     0.00000   19.78350   19.07600    1.69333
     227      444        1     0.00000   23.38050   19.07600    1.69333
     228      444        1     0.00000   26.97750   19.07600    1.69333
     229      444        1     0.00000   30.57450   19.07600    1.69333
     230      444        1     0.00000   34.17150   19.07600    1.69333
     231      444        1     0.00000    1.79850   21.62074    1.69333
     232      444        1     0.00000    5.39550   21.62074    1.69333
     233      444        1     0.00000    8.99250   21.62074    1.69333
     234      444        1     0.00000   12.58950   21.62074    1.69333
     235      444        1     0.00000   16.18650   21.62074    1.69333
     236      444        1     0.00000   19.78350   21.62074    1.69333
     237      444        1     0.00000   23.38050   21.62074    1.69333
     238      444        1     0.00000   26.97750   21.62074    1.69333
     239      444        1     0.00000   30.57450   21.62074    1.69333
     240      444        1     0.00000   34.17150   21.62074    1.69333
     241      444        1     0.00000    1.79850   24.16166    1.69333
     242      444        1     0.00000    5.39550   24.16166    1.69333
     243      444        1     0.00000    8.99250   24.16166    1.69333
     244      444        1     0.00000   12.58950   24.16166    1.69333
     245      444        1     0.00000   16.18650   24.16166    1.69333
     246      444        1     0.00000   19.78350   24.16166    1.69333
     247      444        1     0.00000   23.38050   24.16166    1.69333
     248      444        1     0.00000   26.97750   24.16166    1.69333
     249      444        1     0.00000   30.57450   24.16166    1.69333
     250      444        1     0.00000   34.17150   24.16166    1.69333
     251      444        1     0.00000    1.79850   26.70640    1.69333
     252      444        1     0.00000    5.39550   26.70640    1.69333
     253      444        1     0.00000    8.99250   26.70640    1.69333
     254      444        1     0.00000   12.58950   26.70640    1.69333
     255      444        1     0.00000   16.18650   26.70640    1.69333
     256      444        1     0.00000   19.78350   26.70640    1.69333
     257      444        1     0.00000   23.38050   26.70640    1.69333
     258      444        1     0.00000   26.97750   26.70640    1.69333
     259      444        1     0.00000   30.57450   26.70640    1.69333
     260      444        1     0.00000   34.17150   26.70640    1.69333
     261      444        1     0.00000    1.79850   29.25114    1.69333
     262      444        1     0.00000    5.39550   29.25114    1.69333
     263      444        1     0.00000    8.99250   29.25114    1.69333
     264      444        1     0.00000   12.58950   29.25114    1.69333
     265      444        1     0.00000   16.18650   29.25114    1.69333
     266      444        1     0.00000   19.78350   29.25114    1.69333
     267      444        1     0.00000   23.38050   29.25114    1.69333
     268      444        1     0.00000   26.97750   29.25114    1.69333
     269      444        1     0.00000   30.57450   29.25114    1.69333
     270      444        1     0.00000   34.17150   29.25114    1.69333
     271      444        1     0.00000    1.79850   31.79206    1.69333
     272      444        1     0.00000    5.39550   31.79206    1.69333
     273      444        1     0.00000    8.99250   31.79206    1.69333
     274      444        1     0.00000   12.58950   31.79206    1.69333
     275      444        1     0.00000   16.18650   31.79206    1.69333
     276      444        1     0.00000   19.78350   31.79206    1.69333
     277      444        1     0.00000   23.38050   31.79206    1.69333
     278      444        1     0.00000   26.97750   31.79206    1.69333
     279      444        1     0.00000   30.57450   31.79206    1.69333
     280      444        1     0.00000   34.17150   31.79206    1.69333
     281      444        1     0.00000    1.79850   34.33680    1.69333
     282      444        1     0.00000    5.39550   34.33680    1.69333
     283      444        1     0.00000    8.99250   34.33680    1.69333
     284      444        1     0.00000   12.58950   34.33680    1.69333
     285      444        1     0.00000   16.18650   34.33680    1.69333
     286      444        1     0.00000   19.78350   34.33680    1.69333
     287      444        1     0.00000   23.38050   34.33680    1.69333
     288      444        1     0.00000   26.97750   34.33680    1.69333
     289      444        1     0.00000   30.57450   34.33680    1.69333
     290      444        1     0.00000   34.17150   34.33680    1.69333
     291      444        1     0.00000    1.79850   36.88154    1.69333
     292      444        1     0.00000    5.39550   36.88154    1.69333
     293      444        1     0.00000    8.99250   36.88154    1.69333
     294      444        1     0.00000   12.58950   36.88154    1.69333
     295      444        1     0.00000   16.18650   36.88154    1.69333
     296      444        1     0.00000   19.78350   36.88154    1.69333
     297      444        1     0.00000   23.38050   36.88154    1.69333
     298      444        1     0.00000   26.97750   36.88154    1.69333
     299      444        1     0.00000   30.57450   36.88154    1.69333
     300      444        1     0.00000   34.17150   36.88154    1.69333
     301      444        1     0.00000    0.00000    0.00000    3.38667
     302      444        1     0.00000    3.59700    0.00000    3.38667
     303      444        1     0.00000    7.19400    0.00000    3.38667
     304      444        1     0.00000   10.79100    0.00000    3.38667
     305      444        1     0.00000   14.38800    0.00000    3.38667
     306      444        1     0.00000   17.98500    0.00000    3.38667
     307      444        1     0.00000   21.58200    0.00000    3.38667
     308      444        1     0.00000   25.17900    0.00000    3.38667
     309      444        1     0.00000   28.77600    0.00000    3.38667
     310      444        1     0.00000   32.37300    0.00000    3.38667
     311      444        1     0.00000    0.00000    2.54474    3.38667
     312      444        1     0.00000    3.59700    2.54474    3.38667
     313      444        1     0.00000    7.19400    2.54474    3.38667
     314      444        1     0.00000   10.79100    2.54474    3.38667
     315      444        1     0.00000   14.38800    2.54474    3.38667
     316      444        1     0.00000   17.98500    2.54474    3.38667
     317      444        1     0.00000   21.58200    2.54474    3.38667
     318      444        1     0.00000   25.17900    2.54474    3.38667
     319      444        1     0.00000   28.77600    2.54474    3.38667
     320      444        1     0.00000   32.37300    2.54474    3.38667
     321      444        1     0.00000    0.00000    5.08566    3.38667
     322      444        1     0.00000    3.59700    5.08566    3.38667
     323      444        1     0.00000    7.19400    5.08566    3.38667
     324      444        1     0.00000   10.79100    5.08566    3.38667
     325      444        1     0.00000   14.38800    5.08566    3.38667
     326      444        1     0.00000   17.98500    5.08566    3.38667
     327      444        1     0.00000   21.58200    5.08566    3.38667
     328      444        1     0.00000   25.17900    5.08566    3.38667
     329      444        1     0.00000   28.77600    5.08566    3.38667
     330      444        1     0.00000   32.37300    5.08566    3.38667
     331      444        1     0.00000    0.00000    7.63040    3.38667
     332      444        1     0.00000    3.59700    7.63040    3.38667
     333      444        1     0.00000    7.19400    7.63040    3.38667
     334      444        1     0.00000   10.79100    7.63040    3.38667
     335      444        1     0.00000   14.38800    7.63040    3.38667
     336      444        1     0.00000   17.98500    7.63040    3.38667
     337      444        1     0.00000   21.58200    7.63040    3.38667
     338      444        1     0.00000   25.17900    7.63040    3.38667
     339      444        1     0.00000   28.77600    7.63040    3.38667
     340      444        1     0.00000   32.37300    7.63040    3.38667
     341      444        1     0.00000    0.00000   10.17514    3.38667
     342      444        1     0.00000    3.59700   10.17514    3.38667
     343      444        1     0.00000    7.19400   10.17514    3.38667
     344      444        1     0.00000   10.79100   10.17514    3.38667
     345      444        1     0.00000   14.38800   10.17514    3.38667
     346      444        1     0.00000   17.98500   10.17514    3.38667
     347      444        1     0.00000   21.58200   10.17514    3.38667
     348      444        1     0.00000   25.17900   10.17514    3.38667
     349      444        1     0.00000   28.77600   10.17514    3.38667
     350      444        1     0.00000   32.37300   10.17514    3.38667
     351      444        1     0.00000    0.00000   12.71606    3.38667
     352      444        1     0.00000    3.59700   12.71606    3.38667
     353      444        1     0.00000    7.19400   12.71606    3.38667
     354      444        1     0.00000   10.79100   12.71606    3.38667
     355      444        1     0.00000   14.38800   12.71606    3.38667
     356      444        1     0.00000   17.98500   12.71606    3.38667
     357      444        1     0.00000   21.58200   12.71606    3.38667
     358      444        1     0.00000   25.17900   12.71606    3.38667
     359      444        1     0.00000   28.77600   12.71606    3.38667
     360      444        1     0.00000   32.37300   12.71606    3.38667
     361      444        1     0.00000    0.00000   15.26080    3.38667
     362      444        1     0.00000    3.59700   15.26080    3.38667
     363      444        1     0.00000    7.19400   15.26080    3.38667
     364      444        1     0.00000   10.79100   15.26080    3.38667
     365      444        1     0.00000   14.38800   15.26080    3.38667
     366      444        1     0.00000   17.98500   15.26080    3.38667
     367      444        1     0.00000   21.58200   15.26080    3.38667
     368      444        1     0.00000   25.17900   15.26080    3.38667
     369      444        1     0.00000   28.77600   15.26080    3.38667
     370      444        1     0.00000   32.37300   15.26080    3.38667
     371      444        1     0.00000    0.00000   17.80554    3.38667
     372      444        1     0.00000    3.59700   17.80554    3.38667
     373      444        1     0.00000    7.19400   17.80554    3.38667
     374      444        1     0.00000   10.79100   17.80554    3.38667
     375      444        1     0.00000   14.38800   17.80554    3.38667
     376      444        1     0.00000   17.98500   17.80554    3.38667
     377      444        1     0.00000   21.58200   17.80554    3.38667
     378      444        1     0.00000   25.17900   17.80554    3.38667
     379      444        1     0.00000   28.77600   17.80554    3.38667
     380      444        1     0.00000   32.37300   17.80554    3.38667
     381      444        1     0.00000    0.00000   20.34646    3.38667
     382      444        1     0.00000    3.59700   20.34646    3.38667
     383      444        1     0.00000    7.19400   20.34646    3.38667
     384      444        1     0.00000   10.79100   20.34646    3.38667
     385      444        1     0.00000   14.38800   20.34646    3.38667
     386      444        1     0.00000   17.98500   20.34646    3.38667
     387      444        1     0.00000   21.58200   20.34646    3.38667
     388      444        1     0.00000   25.17900   20.34646    3.38667
     389      444        1     0.00000   28.77600   20.34646    3.38667
     390      444        1     0.00000   32.37300   20.34646    3.38667
     391      444        1     0.00000    0.00000   22.89120    3.38667
     392      444        1     0.00000    3.59700   22.89120    3.38667
     393      444        1     0.00000    7.19400   22.89120    3.38667
     394      444        1     0.00000   10.79100   22.89120    3.38667
     395      444        1     0.00000   14.38800   22.89120    3.38667
     396      444        1     0.00000   17.98500   22.89120    3.38667
     397      444        1     0.00000   21.58200   22.89120    3.38667
     398      444        1     0.00000   25.17900   22.89120    3.38667