 *******************************************************************************
 ** Site#: 9602  E-mail support: MrMOPAC@OpenMOPAC.net  Version 16.035L 64BITS**
 *******************************************************************************
 ** Cite this program as: MOPAC2016, Version: 16.035L, James J. P. Stewart,   **
 ** Stewart Computational Chemistry, web-site: HTTP://OpenMOPAC.net.          **
 *******************************************************************************
 **                                                                           **
 **                                MOPAC2016                                  **
 **                                                                           **
 *******************************************************************************

                              PM7 CALCULATION RESULTS


 *******************************************************************************
 *  CALCULATION DONE:                                Fri Apr 28 02:48:06 2017  *
 *  PM7        - The PM7 Hamiltonian to be used
 *
 *
 *
 *                 CHARGE ON SYSTEM = 0
 *
 *
 *
 *  BFGS       - USE THE BFGS GEOMETRY OPTIMIZER
 *  T=         - A TIME OF 172800.0 SECONDS REQUESTED
 *  DUMP=N     - RESTART FILE WRITTEN EVERY  7200.000 SECONDS
 *******************************************************************************
PM7 BFGS CHARGE=0
 chassi-H2-cd.xyz

   ATOM   CHEMICAL          X               Y               Z
  NUMBER   SYMBOL      (ANGSTROMS)     (ANGSTROMS)     (ANGSTROMS)
 
     1       C         -0.67010000  *   6.94720000  *   0.17030000  *
     2       C         -1.33870000  *   5.78970000  *   0.17030000  *
     3       C         -0.67010000  *   4.63170000  *   0.17030000  *
     4       C          0.66710000  *   4.63170000  *   0.17030000  *
     5       C          1.33520000  *   5.78920000  *   0.17030000  *
     6       C          0.66710000  *   6.94720000  *   0.17030000  *
     7       C          2.67240000  *   5.78920000  *   0.15860000  *
     8       C          3.34100000  *   6.94720000  *   0.15970000  *
     9       C          2.67240000  *   8.10520000  *   0.18100000  *
    10       C          1.33520000  *   8.10520000  *   0.18200000  *
    11       C         -1.33870000  *   8.10520000  *   0.18200000  *
    12       C         -2.67540000  *   8.10520000  *   0.19370000  *
    13       C         -3.34400000  *   6.94720000  *   0.14750000  *
    14       C         -2.67540000  *   5.78970000  *   0.15860000  *
    15       C         -1.33870000  *   3.47370000  *   0.15860000  *
    16       C         -0.67010000  *   2.31570000  *   0.15660000  *
    17       C          0.66660000  *   2.31570000  *   0.16580000  *
    18       C          1.33520000  *   3.47370000  *   0.15860000  *
    19       C         -1.33870000  *   1.15820000  *   0.13330000  *
    20       C         -0.67010000  *   0.00030000  *   0.13070000  *
    21       C          0.66660000  *   0.00030000  *   0.15150000  *
    22       C          1.33520000  *   1.15770000  *   0.16980000  *
    23       C         -1.33820000  *  -1.15720000  *   0.09620000  *
    24       C         -0.66960000  *  -2.31520000  *   0.09370000  *
    25       C          0.66660000  *  -2.31570000  *   0.12620000  *
    26       C          1.33520000  *  -1.15770000  *   0.14240000  *
    27       C         -1.33770000  *  -3.47270000  *   0.04750000  *
    28       C         -0.66910000  *  -4.63070000  *   0.04490000  *
    29       C          0.66710000  *  -4.63120000  *   0.08910000  *
    30       C          1.33520000  *  -3.47370000  *   0.13020000  *
    31       C          4.65380000  *   6.94720000  *   0.13940000  *
    32       C          5.86560000  *   6.94770000  *   0.12060000  *
    33       C          7.33530000  *   6.94770000  *   0.09770000  *
    34       C         -4.65580000  *   6.94820000  *   0.09060000  *
    35       C         -5.86660000  *   6.94870000  *   0.03780000  *
    36       C         -7.33530000  *   6.94920000  *  -0.02560000  *
    37       C         -1.33670000  *  -5.78770000  *  -0.01290000  *
    38       C         -0.66860000  *  -6.94560000  *  -0.01500000  *
    39       C          0.66760000  *  -6.94610000  *   0.04040000  *
    40       C          1.33520000  *  -5.78920000  *   0.08660000  *
    41       C          1.33570000  *  -8.10410000  *   0.03780000  *
    42       C          2.67180000  *  -8.10520000  *   0.09320000  *
    43       C          3.33940000  *  -6.94770000  *   0.13990000  *
    44       C          2.67130000  *  -5.78970000  *   0.14190000  *
    45       C         -2.67240000  *  -5.78610000  *  -0.08000000  *
    46       C         -3.33940000  *  -6.94310000  *  -0.13830000  *
    47       C         -2.67080000  *  -8.10060000  *  -0.15150000  *
    48       C         -1.33520000  *  -8.10210000  *  -0.08450000  *
    49       C          4.65170000  *  -6.94870000  *   0.18300000  *
    50       C          5.86300000  *  -6.94920000  *   0.22310000  *
    51       C          7.33220000  *  -6.94970000  *   0.27190000  *
    52       C         -4.65180000  *  -6.94260000  *  -0.18200000  *
    53       C         -5.86300000  *  -6.94210000  *  -0.22260000  *
    54       C         -7.33220000  *  -6.94160000  *  -0.27190000  *
    55       H          3.18834000  *   4.89548000  *   0.14872000  *
    56       H          3.18843000  *   8.99878000  *   0.19666000  *
    57       H          0.81906000  *   8.99880000  *   0.19180000  *
    58       H         -0.82271000  *   8.99894000  *   0.18200000  *
    59       H         -3.19134000  *   8.99786000  *   0.23834000  *
    60       H         -3.19131000  *   4.89591000  *   0.15814000  *
    61       H         -2.37067000  *   3.47373000  *   0.15111000  *
    62       H          2.36710000  *   3.47355000  *   0.14401000  *
    63       H         -2.37058000  *   1.15841000  *   0.11733000  *
    64       H          2.36706000  *   1.15750000  *   0.18701000  *
    65       H         -2.36990000  *  -1.15697000  *   0.07150000  *
    66       H          2.36719000  *  -1.15774000  *   0.14788000  *
    67       H         -2.36915000  *  -3.47224000  *   0.01386000  *
    68       H          2.36661000  *  -3.47405000  *   0.16500000  *
    69       H          7.69977000  *   7.82176000  *   0.59578000  *
    70       H          7.67621000  *   6.94689000  *  -0.91654000  *
    71       H          7.69979000  *   6.07445000  *   0.59719000  *
    72       H         -7.71391000  *   7.81167000  *   0.48204000  *
    73       H         -7.71286000  *   6.06479000  *   0.44363000  *
    74       H         -7.64813000  *   6.97150000  *  -1.04860000  *
    75       H          0.82034000  *  -8.99709000  *  -0.00696000  *
    76       H          3.18743000  *  -8.99913000  *   0.09991000  *
    77       H          3.18647000  *  -4.89658000  *   0.18610000  *
    78       H         -3.18790000  *  -4.89210000  *  -0.08677000  *
    79       H         -3.18535000  *  -8.99303000  *  -0.21340000  *
    80       H         -0.81931000  *  -8.99590000  *  -0.08645000  *
    81       H          7.67169000  *  -6.08554000  *   0.80376000  *
    82       H          7.72216000  *  -6.93137000  *  -0.72434000  *
    83       H          7.67216000  *  -7.83255000  *   0.77180000  *
    84       H         -7.70582000  *  -6.07727000  *   0.23627000  *
    85       H         -7.70534000  *  -7.82427000  *   0.20408000  *
    86       H         -7.65484000  *  -6.92290000  *  -1.29193000  *
 


          CARTESIAN COORDINATES 

    NO.       ATOM         X         Y         Z

     1         C       -0.6701    6.9472    0.1703
     2         C       -1.3387    5.7897    0.1703
     3         C       -0.6701    4.6317    0.1703
     4         C        0.6671    4.6317    0.1703
     5         C        1.3352    5.7892    0.1703
     6         C        0.6671    6.9472    0.1703
     7         C        2.6724    5.7892    0.1586
     8         C        3.3410    6.9472    0.1597
     9         C        2.6724    8.1052    0.1810
    10         C        1.3352    8.1052    0.1820
    11         C       -1.3387    8.1052    0.1820
    12         C       -2.6754    8.1052    0.1937
    13         C       -3.3440    6.9472    0.1475
    14         C       -2.6754    5.7897    0.1586
    15         C       -1.3387    3.4737    0.1586
    16         C       -0.6701    2.3157    0.1566
    17         C        0.6666    2.3157    0.1658
    18         C        1.3352    3.4737    0.1586
    19         C       -1.3387    1.1582    0.1333
    20         C       -0.6701    0.0003    0.1307
    21         C        0.6666    0.0003    0.1515
    22         C        1.3352    1.1577    0.1698
    23         C       -1.3382   -1.1572    0.0962
    24         C       -0.6696   -2.3152    0.0937
    25         C        0.6666   -2.3157    0.1262
    26         C        1.3352   -1.1577    0.1424
    27         C       -1.3377   -3.4727    0.0475
    28         C       -0.6691   -4.6307    0.0449
    29         C        0.6671   -4.6312    0.0891
    30         C        1.3352   -3.4737    0.1302
    31         C        4.6538    6.9472    0.1394
    32         C        5.8656    6.9477    0.1206
    33         C        7.3353    6.9477    0.0977
    34         C       -4.6558    6.9482    0.0906
    35         C       -5.8666    6.9487    0.0378
    36         C       -7.3353    6.9492   -0.0256
    37         C       -1.3367   -5.7877   -0.0129
    38         C       -0.6686   -6.9456   -0.0150
    39         C        0.6676   -6.9461    0.0404
    40         C        1.3352   -5.7892    0.0866
    41         C        1.3357   -8.1041    0.0378
    42         C        2.6718   -8.1052    0.0932
    43         C        3.3394   -6.9477    0.1399
    44         C        2.6713   -5.7897    0.1419
    45         C       -2.6724   -5.7861   -0.0800
    46         C       -3.3394   -6.9431   -0.1383
    47         C       -2.6708   -8.1006   -0.1515
    48         C       -1.3352   -8.1021   -0.0845
    49         C        4.6517   -6.9487    0.1830
    50         C        5.8630   -6.9492    0.2231
    51         C        7.3322   -6.9497    0.2719
    52         C       -4.6518   -6.9426   -0.1820
    53         C       -5.8630   -6.9421   -0.2226
    54         C       -7.3322   -6.9416   -0.2719
    55         H        3.1883    4.8955    0.1487
    56         H        3.1884    8.9988    0.1967
    57         H        0.8191    8.9988    0.1918
    58         H       -0.8227    8.9989    0.1820
    59         H       -3.1913    8.9979    0.2383
    60         H       -3.1913    4.8959    0.1581
    61         H       -2.3707    3.4737    0.1511
    62         H        2.3671    3.4735    0.1440
    63         H       -2.3706    1.1584    0.1173
    64         H        2.3671    1.1575    0.1870
    65         H       -2.3699   -1.1570    0.0715
    66         H        2.3672   -1.1577    0.1479
    67         H       -2.3691   -3.4722    0.0139
    68         H        2.3666   -3.4741    0.1650
    69         H        7.6998    7.8218    0.5958
    70         H        7.6762    6.9469   -0.9165
    71         H        7.6998    6.0744    0.5972
    72         H       -7.7139    7.8117    0.4820
    73         H       -7.7129    6.0648    0.4436
    74         H       -7.6481    6.9715   -1.0486
    75         H        0.8203   -8.9971   -0.0070
    76         H        3.1874   -8.9991    0.0999
    77         H        3.1865   -4.8966    0.1861
    78         H       -3.1879   -4.8921   -0.0868
    79         H       -3.1854   -8.9930   -0.2134
    80         H       -0.8193   -8.9959   -0.0864
    81         H        7.6717   -6.0855    0.8038
    82         H        7.7222   -6.9314   -0.7243
    83         H        7.6722   -7.8326    0.7718
    84         H       -7.7058   -6.0773    0.2363
    85         H       -7.7053   -7.8243    0.2041
    86         H       -7.6548   -6.9229   -1.2919

 General Reference for PM7:
 "Optimization of Parameters for Semiempirical Methods VI: More Modifications to the 
 NDDO Approximations and Re-optimization of Parameters", J. J. P. Stewart, J. Mol. Mod., 1:32, 19 (2013)
 http://www.springerlink.com/openurl.asp?genre=article&id=doi:10.1007/s00894-012-1667-x

           Empirical Formula: C54 H32  =    86 atoms



      MOLECULAR POINT GROUP   :   C2  


      RHF CALCULATION, NO. OF DOUBLY OCCUPIED LEVELS = 124


          Geometry optimization using BFGS
 CYCLE:     1 TIME:   0.388 TIME LEFT:  2.00D  GRAD.:   538.615 HEAT:  597.5792
 CYCLE:     2 TIME:   0.246 TIME LEFT:  2.00D  GRAD.:   335.260 HEAT:  512.7394
 CYCLE:     3 TIME:   0.245 TIME LEFT:  2.00D  GRAD.:   286.118 HEAT:  496.2968
 CYCLE:     4 TIME:   0.248 TIME LEFT:  2.00D  GRAD.:   177.470 HEAT:  478.9527
 CYCLE:     5 TIME:   0.247 TIME LEFT:  2.00D  GRAD.:   174.341 HEAT:  473.2867
 CYCLE:     6 TIME:   0.250 TIME LEFT:  2.00D  GRAD.:   205.017 HEAT:  466.5322
 CYCLE:     7 TIME:   0.224 TIME LEFT:  2.00D  GRAD.:   188.026 HEAT:  458.7165
 CYCLE:     8 TIME:   0.161 TIME LEFT:  2.00D  GRAD.:   292.933 HEAT:  451.8280
 CYCLE:     9 TIME:   0.244 TIME LEFT:  2.00D  GRAD.:   292.872 HEAT:  444.8852
 CYCLE:    10 TIME:   0.241 TIME LEFT:  2.00D  GRAD.:   209.515 HEAT:  434.9009
 CYCLE:    11 TIME:   0.256 TIME LEFT:  2.00D  GRAD.:   153.114 HEAT:  426.9882
 CYCLE:    12 TIME:   0.256 TIME LEFT:  2.00D  GRAD.:   140.022 HEAT:  421.8357
 CYCLE:    13 TIME:   0.162 TIME LEFT:  2.00D  GRAD.:   271.568 HEAT:  420.1285
 CYCLE:    14 TIME:   0.151 TIME LEFT:  2.00D  GRAD.:   185.909 HEAT:  406.5555
 CYCLE:    15 TIME:   0.231 TIME LEFT:  2.00D  GRAD.:   156.639 HEAT:  400.1670
 CYCLE:    16 TIME:   0.235 TIME LEFT:  2.00D  GRAD.:   131.359 HEAT:  395.0143
 CYCLE:    17 TIME:   0.158 TIME LEFT:  2.00D  GRAD.:   153.252 HEAT:  389.4550
 CYCLE:    18 TIME:   0.160 TIME LEFT:  2.00D  GRAD.:   184.406 HEAT:  383.2232
 CYCLE:    19 TIME:   0.229 TIME LEFT:  2.00D  GRAD.:   130.300 HEAT:  379.1747
 CYCLE:    20 TIME:   0.228 TIME LEFT:  2.00D  GRAD.:   115.787 HEAT:  374.7895
 CYCLE:    21 TIME:   0.221 TIME LEFT:  2.00D  GRAD.:    81.134 HEAT:  372.1344
 CYCLE:    22 TIME:   0.219 TIME LEFT:  2.00D  GRAD.:    82.824 HEAT:  369.7944
 CYCLE:    23 TIME:   0.156 TIME LEFT:  2.00D  GRAD.:   142.851 HEAT:  369.5698
 CYCLE:    24 TIME:   0.153 TIME LEFT:  2.00D  GRAD.:   122.096 HEAT:  367.6597
 CYCLE:    25 TIME:   0.238 TIME LEFT:  2.00D  GRAD.:    73.344 HEAT:  364.9787
 CYCLE:    26 TIME:   0.220 TIME LEFT:  2.00D  GRAD.:    51.485 HEAT:  363.8133
 CYCLE:    27 TIME:   0.208 TIME LEFT:  2.00D  GRAD.:    31.982 HEAT:  363.1013
 CYCLE:    28 TIME:   0.141 TIME LEFT:  2.00D  GRAD.:    51.966 HEAT:  362.7641
 CYCLE:    29 TIME:   0.146 TIME LEFT:  2.00D  GRAD.:    41.888 HEAT:  362.2787
 CYCLE:    30 TIME:   0.146 TIME LEFT:  2.00D  GRAD.:    73.170 HEAT:  362.0801
 CYCLE:    31 TIME:   0.140 TIME LEFT:  2.00D  GRAD.:    42.012 HEAT:  361.5952
 CYCLE:    32 TIME:   0.139 TIME LEFT:  2.00D  GRAD.:    59.752 HEAT:  361.4620
 CYCLE:    33 TIME:   0.146 TIME LEFT:  2.00D  GRAD.:    45.765 HEAT:  361.1839
 CYCLE:    34 TIME:   0.196 TIME LEFT:  2.00D  GRAD.:    37.957 HEAT:  360.7119
 CYCLE:    35 TIME:   0.140 TIME LEFT:  2.00D  GRAD.:    44.686 HEAT:  360.6128
 CYCLE:    36 TIME:   0.139 TIME LEFT:  2.00D  GRAD.:    41.693 HEAT:  360.3087
 CYCLE:    37 TIME:   0.206 TIME LEFT:  2.00D  GRAD.:    28.213 HEAT:  359.9876
 CYCLE:    38 TIME:   0.140 TIME LEFT:  2.00D  GRAD.:    21.828 HEAT:  359.7707
 CYCLE:    39 TIME:   0.204 TIME LEFT:  2.00D  GRAD.:    20.304 HEAT:  359.6221
 CYCLE:    40 TIME:   0.142 TIME LEFT:  2.00D  GRAD.:    27.033 HEAT:  359.5893
 CYCLE:    41 TIME:   0.142 TIME LEFT:  2.00D  GRAD.:    16.416 HEAT:  359.3661
 TEST ON GRADIENT SATISFIED
                    HOWEVER, A COMPONENT OF GRADIENT IS LARGER THAN  1.00

 CYCLE:    42 TIME:   0.205 TIME LEFT:  2.00D  GRAD.:    11.976 HEAT:  359.2936
 CYCLE:    43 TIME:   0.141 TIME LEFT:  2.00D  GRAD.:    16.673 HEAT:  359.2510
 CYCLE:    44 TIME:   0.142 TIME LEFT:  2.00D  GRAD.:    17.783 HEAT:  359.1160
 CYCLE:    45 TIME:   0.144 TIME LEFT:  2.00D  GRAD.:    16.843 HEAT:  358.9369
 CYCLE:    46 TIME:   0.142 TIME LEFT:  2.00D  GRAD.:    16.477 HEAT:  358.7679
 CYCLE:    47 TIME:   0.143 TIME LEFT:  2.00D  GRAD.:    19.069 HEAT:  358.6599
 CYCLE:    48 TIME:   0.143 TIME LEFT:  2.00D  GRAD.:    18.305 HEAT:  358.5488
 TEST ON GRADIENT SATISFIED
                    HOWEVER, A COMPONENT OF GRADIENT IS LARGER THAN  1.00

 CYCLE:    49 TIME:   0.201 TIME LEFT:  2.00D  GRAD.:    11.219 HEAT:  358.4796
 TEST ON GRADIENT SATISFIED
                    HOWEVER, A COMPONENT OF GRADIENT IS LARGER THAN  1.00

 CYCLE:    50 TIME:   0.144 TIME LEFT:  2.00D  GRAD.:    14.009 HEAT:  358.4272
 TEST ON GRADIENT SATISFIED
                    HOWEVER, A COMPONENT OF GRADIENT IS LARGER THAN  1.00

 CYCLE:    51 TIME:   0.146 TIME LEFT:  2.00D  GRAD.:    11.418 HEAT:  358.3806
 TEST ON GRADIENT SATISFIED
                    HOWEVER, A COMPONENT OF GRADIENT IS LARGER THAN  1.00

           THERE HAVE BEEN 3 ATTEMPTS TO REDUCE THE GRADIENT.
           DURING THESE ATTEMPTS THE ENERGY DROPPED BY LESS THAN 0.3 KCAL/MOLE
           FURTHER CALCULATION IS NOT JUSTIFIED AT THIS TIME.
           TO CONTINUE, START AGAIN WITH THE WORD "PRECISE"

 -------------------------------------------------------------------------------
PM7 BFGS CHARGE=0
 chassi-H2-cd.xyz



     GRADIENT TEST NOT PASSED, BUT FURTHER WORK NOT JUSTIFIED 
     SCF FIELD WAS ACHIEVED                                   


                              PM7 CALCULATION
                                                       MOPAC2016 (Version: 16.035L)
                                                       Fri Apr 28 02:48:16 2017
                                                       No. of days remaining = 474




          FINAL HEAT OF FORMATION =        358.36649 KCAL/MOL =    1499.40541 KJ/MOL


          TOTAL ENERGY            =      -7059.40461 EV
          ELECTRONIC ENERGY       =     -75933.02984 EV  POINT GROUP:     C1  
          CORE-CORE REPULSION     =      68873.62523 EV
          COSMO AREA              =        718.65 SQUARE ANGSTROMS
          COSMO VOLUME            =        809.26 CUBIC ANGSTROMS

          GRADIENT NORM           =         10.75393
          IONIZATION POTENTIAL    =          7.747828 EV
          HOMO LUMO ENERGIES (EV) =         -7.748 -1.757
          NO. OF FILLED LEVELS    =        124
          MOLECULAR WEIGHT        =        680.8468

          MOLECULAR DIMENSIONS (Angstroms)

            Atom       Atom       Distance
            H    85    H    69    22.58144
            H    85    H    69    22.57836
            H    86    H    72     1.83003


          SCF CALCULATIONS        =         80
 
          WALL-CLOCK TIME         =         10.246 SECONDS
          COMPUTATION TIME        =          9.964 SECONDS



       FINAL  POINT  AND  DERIVATIVES

   PARAMETER     ATOM    TYPE            VALUE       GRADIENT
      1          1  C    CARTESIAN X    -0.730105     0.821227  KCAL/ANGSTROM
      2          1  C    CARTESIAN Y     7.377516    -1.465766  KCAL/ANGSTROM
      3          1  C    CARTESIAN Z     0.200531    -0.146840  KCAL/ANGSTROM
      4          2  C    CARTESIAN X    -1.434699     0.203868  KCAL/ANGSTROM
      5          2  C    CARTESIAN Y     6.159772     1.016467  KCAL/ANGSTROM
      6          2  C    CARTESIAN Z     0.173697     0.014106  KCAL/ANGSTROM
      7          3  C    CARTESIAN X    -0.723552    -0.270096  KCAL/ANGSTROM
      8          3  C    CARTESIAN Y     4.883375     0.278832  KCAL/ANGSTROM
      9          3  C    CARTESIAN Z     0.181222     0.520419  KCAL/ANGSTROM
     10          4  C    CARTESIAN X     0.722268     0.151024  KCAL/ANGSTROM
     11          4  C    CARTESIAN Y     4.884039     0.351155  KCAL/ANGSTROM
     12          4  C    CARTESIAN Z     0.197953    -0.857022  KCAL/ANGSTROM
     13          5  C    CARTESIAN X     1.435166     0.659032  KCAL/ANGSTROM
     14          5  C    CARTESIAN Y     6.160342     1.132784  KCAL/ANGSTROM
     15          5  C    CARTESIAN Z     0.196666     1.334747  KCAL/ANGSTROM
     16          6  C    CARTESIAN X     0.730330    -0.440234  KCAL/ANGSTROM
     17          6  C    CARTESIAN Y     7.378271    -1.486590  KCAL/ANGSTROM
     18          6  C    CARTESIAN Z     0.205266    -0.321498  KCAL/ANGSTROM
     19          7  C    CARTESIAN X     2.834053    -0.956931  KCAL/ANGSTROM
     20          7  C    CARTESIAN Y     6.178322    -0.774243  KCAL/ANGSTROM
     21          7  C    CARTESIAN Z     0.175827    -2.034276  KCAL/ANGSTROM
     22          8  C    CARTESIAN X     3.546304     1.562436  KCAL/ANGSTROM
     23          8  C    CARTESIAN Y     7.379748     0.154352  KCAL/ANGSTROM
     24          8  C    CARTESIAN Z     0.182930     1.617295  KCAL/ANGSTROM
     25          9  C    CARTESIAN X     2.844436     0.318350  KCAL/ANGSTROM
     26          9  C    CARTESIAN Y     8.592276     0.132634  KCAL/ANGSTROM
     27          9  C    CARTESIAN Z     0.203304    -0.237325  KCAL/ANGSTROM
     28         10  C    CARTESIAN X     1.457320     0.865772  KCAL/ANGSTROM
     29         10  C    CARTESIAN Y     8.580260    -0.114680  KCAL/ANGSTROM
     30         10  C    CARTESIAN Z     0.211204    -0.100491  KCAL/ANGSTROM
     31         11  C    CARTESIAN X    -1.458624    -1.757572  KCAL/ANGSTROM
     32         11  C    CARTESIAN Y     8.578529    -0.455270  KCAL/ANGSTROM
     33         11  C    CARTESIAN Z     0.216099     0.098809  KCAL/ANGSTROM
     34         12  C    CARTESIAN X    -2.845195    -0.165511  KCAL/ANGSTROM
     35         12  C    CARTESIAN Y     8.588981    -0.787575  KCAL/ANGSTROM
     36         12  C    CARTESIAN Z     0.192931    -0.232679  KCAL/ANGSTROM
     37         13  C    CARTESIAN X    -3.545547    -0.525028  KCAL/ANGSTROM
     38         13  C    CARTESIAN Y     7.377144     1.638928  KCAL/ANGSTROM
     39         13  C    CARTESIAN Z     0.148131     0.468640  KCAL/ANGSTROM
     40         14  C    CARTESIAN X    -2.834041    -0.666871  KCAL/ANGSTROM
     41         14  C    CARTESIAN Y     6.176214    -0.136355  KCAL/ANGSTROM
     42         14  C    CARTESIAN Z     0.141798    -0.224773  KCAL/ANGSTROM
     43         15  C    CARTESIAN X    -1.396844    -0.580105  KCAL/ANGSTROM
     44         15  C    CARTESIAN Y     3.692667     0.104882  KCAL/ANGSTROM
     45         15  C    CARTESIAN Z     0.176354    -0.567246  KCAL/ANGSTROM
     46         16  C    CARTESIAN X    -0.716502    -0.106738  KCAL/ANGSTROM
     47         16  C    CARTESIAN Y     2.432251     0.434664  KCAL/ANGSTROM
     48         16  C    CARTESIAN Z     0.189419     0.231727  KCAL/ANGSTROM
     49         17  C    CARTESIAN X     0.713670    -0.450042  KCAL/ANGSTROM
     50         17  C    CARTESIAN Y     2.431640     0.581496  KCAL/ANGSTROM
     51         17  C    CARTESIAN Z     0.214109    -0.209859  KCAL/ANGSTROM
     52         18  C    CARTESIAN X     1.393396    -0.852329  KCAL/ANGSTROM
     53         18  C    CARTESIAN Y     3.692559     0.349831  KCAL/ANGSTROM
     54         18  C    CARTESIAN Z     0.221000     0.382671  KCAL/ANGSTROM
     55         19  C    CARTESIAN X    -1.405584     0.605326  KCAL/ANGSTROM
     56         19  C    CARTESIAN Y     1.230409    -0.075800  KCAL/ANGSTROM
     57         19  C    CARTESIAN Z     0.174646     0.195614  KCAL/ANGSTROM
     58         20  C    CARTESIAN X    -0.714337     0.522377  KCAL/ANGSTROM
     59         20  C    CARTESIAN Y     0.000281     0.511244  KCAL/ANGSTROM
     60         20  C    CARTESIAN Z     0.169952    -0.858100  KCAL/ANGSTROM
     61         21  C    CARTESIAN X     0.713198    -0.524091  KCAL/ANGSTROM
     62         21  C    CARTESIAN Y    -0.001152    -0.671011  KCAL/ANGSTROM
     63         21  C    CARTESIAN Z     0.204969     1.411880  KCAL/ANGSTROM
     64         22  C    CARTESIAN X     1.404164     1.411264  KCAL/ANGSTROM
     65         22  C    CARTESIAN Y     1.229546    -0.567874  KCAL/ANGSTROM
     66         22  C    CARTESIAN Z     0.227430    -0.528036  KCAL/ANGSTROM
     67         23  C    CARTESIAN X    -1.405584    -1.647950  KCAL/ANGSTROM
     68         23  C    CARTESIAN Y    -1.229358     0.350030  KCAL/ANGSTROM
     69         23  C    CARTESIAN Z     0.128232     0.407107  KCAL/ANGSTROM
     70         24  C    CARTESIAN X    -0.714070     0.702988  KCAL/ANGSTROM
     71         24  C    CARTESIAN Y    -2.430825    -0.547752  KCAL/ANGSTROM
     72         24  C    CARTESIAN Z     0.107681    -0.348305  KCAL/ANGSTROM
     73         25  C    CARTESIAN X     0.715543    -0.004900  KCAL/ANGSTROM
     74         25  C    CARTESIAN Y    -2.432195    -0.468899  KCAL/ANGSTROM
     75         25  C    CARTESIAN Z     0.149320     0.357428  KCAL/ANGSTROM
     76         26  C    CARTESIAN X     1.404642    -0.174434  KCAL/ANGSTROM
     77         26  C    CARTESIAN Y    -1.231062    -0.191405  KCAL/ANGSTROM
     78         26  C    CARTESIAN Z     0.199743    -0.706497  KCAL/ANGSTROM
     79         27  C    CARTESIAN X    -1.394481    -0.670634  KCAL/ANGSTROM
     80         27  C    CARTESIAN Y    -3.689441     0.035282  KCAL/ANGSTROM
     81         27  C    CARTESIAN Z     0.042083    -0.022329  KCAL/ANGSTROM
     82         28  C    CARTESIAN X    -0.721775     0.378970  KCAL/ANGSTROM
     83         28  C    CARTESIAN Y    -4.880575    -0.389837  KCAL/ANGSTROM
     84         28  C    CARTESIAN Z     0.024344     0.089732  KCAL/ANGSTROM
     85         29  C    CARTESIAN X     0.723004     0.175822  KCAL/ANGSTROM
     86         29  C    CARTESIAN Y    -4.881407    -0.390076  KCAL/ANGSTROM
     87         29  C    CARTESIAN Z     0.077737    -0.005722  KCAL/ANGSTROM
     88         30  C    CARTESIAN X     1.396733     1.270869  KCAL/ANGSTROM
     89         30  C    CARTESIAN Y    -3.691920     0.087573  KCAL/ANGSTROM
     90         30  C    CARTESIAN Z     0.133558     0.050206  KCAL/ANGSTROM
     91         31  C    CARTESIAN X     4.950898     0.675126  KCAL/ANGSTROM
     92         31  C    CARTESIAN Y     7.330181     1.317202  KCAL/ANGSTROM
     93         31  C    CARTESIAN Z     0.154427    -0.641213  KCAL/ANGSTROM
     94         32  C    CARTESIAN X     6.157587    -0.375711  KCAL/ANGSTROM
     95         32  C    CARTESIAN Y     7.205534    -0.898176  KCAL/ANGSTROM
     96         32  C    CARTESIAN Z     0.128233     0.334151  KCAL/ANGSTROM
     97         33  C    CARTESIAN X     7.575949    -0.259602  KCAL/ANGSTROM
     98         33  C    CARTESIAN Y     7.057079     0.121508  KCAL/ANGSTROM
     99         33  C    CARTESIAN Z     0.096054    -0.253800  KCAL/ANGSTROM
    100         34  C    CARTESIAN X    -4.949306    -3.430989  KCAL/ANGSTROM
    101         34  C    CARTESIAN Y     7.319853    -1.503839  KCAL/ANGSTROM
    102         34  C    CARTESIAN Z     0.097987    -0.115258  KCAL/ANGSTROM
    103         35  C    CARTESIAN X    -6.154822     3.088400  KCAL/ANGSTROM
    104         35  C    CARTESIAN Y     7.204768     0.700539  KCAL/ANGSTROM
    105         35  C    CARTESIAN Z     0.041557     0.111936  KCAL/ANGSTROM
    106         36  C    CARTESIAN X    -7.571756     0.649973  KCAL/ANGSTROM
    107         36  C    CARTESIAN Y     7.057684    -0.168105  KCAL/ANGSTROM
    108         36  C    CARTESIAN Z    -0.027893    -0.162730  KCAL/ANGSTROM
    109         37  C    CARTESIAN X    -1.433595     0.303247  KCAL/ANGSTROM
    110         37  C    CARTESIAN Y    -6.154709     0.446438  KCAL/ANGSTROM
    111         37  C    CARTESIAN Z    -0.052995    -0.216935  KCAL/ANGSTROM
    112         38  C    CARTESIAN X    -0.729005     0.791111  KCAL/ANGSTROM
    113         38  C    CARTESIAN Y    -7.373710    -0.722319  KCAL/ANGSTROM
    114         38  C    CARTESIAN Z    -0.068642     0.096394  KCAL/ANGSTROM
    115         39  C    CARTESIAN X     0.729169    -0.612478  KCAL/ANGSTROM
    116         39  C    CARTESIAN Y    -7.374369     1.350157  KCAL/ANGSTROM
    117         39  C    CARTESIAN Z     0.004777    -0.247483  KCAL/ANGSTROM
    118         40  C    CARTESIAN X     1.433491     0.396517  KCAL/ANGSTROM
    119         40  C    CARTESIAN Y    -6.157964    -0.603183  KCAL/ANGSTROM
    120         40  C    CARTESIAN Z     0.072680    -0.248671  KCAL/ANGSTROM
    121         41  C    CARTESIAN X     1.453753     0.337932  KCAL/ANGSTROM
    122         41  C    CARTESIAN Y    -8.577858    -0.480282  KCAL/ANGSTROM
    123         41  C    CARTESIAN Z     0.014554     0.879552  KCAL/ANGSTROM
    124         42  C    CARTESIAN X     2.838710    -0.299790  KCAL/ANGSTROM
    125         42  C    CARTESIAN Y    -8.590043     0.667088  KCAL/ANGSTROM
    126         42  C    CARTESIAN Z     0.080730    -0.674388  KCAL/ANGSTROM
    127         43  C    CARTESIAN X     3.540291     0.886315  KCAL/ANGSTROM
    128         43  C    CARTESIAN Y    -7.378593    -0.166541  KCAL/ANGSTROM
    129         43  C    CARTESIAN Z     0.140648     0.414240  KCAL/ANGSTROM
    130         44  C    CARTESIAN X     2.831225    -0.065010  KCAL/ANGSTROM
    131         44  C    CARTESIAN Y    -6.176978    -0.303459  KCAL/ANGSTROM
    132         44  C    CARTESIAN Z     0.140668     0.186105  KCAL/ANGSTROM
    133         45  C    CARTESIAN X    -2.833108    -1.765608  KCAL/ANGSTROM
    134         45  C    CARTESIAN Y    -6.172451    -0.884292  KCAL/ANGSTROM
    135         45  C    CARTESIAN Z    -0.113168    -0.011767  KCAL/ANGSTROM
    136         46  C    CARTESIAN X    -3.541359    -0.019668  KCAL/ANGSTROM
    137         46  C    CARTESIAN Y    -7.371660    -0.680134  KCAL/ANGSTROM
    138         46  C    CARTESIAN Z    -0.190614    -0.068300  KCAL/ANGSTROM
    139         47  C    CARTESIAN X    -2.838688    -0.342634  KCAL/ANGSTROM
    140         47  C    CARTESIAN Y    -8.583458     1.294166  KCAL/ANGSTROM
    141         47  C    CARTESIAN Z    -0.212127     0.328950  KCAL/ANGSTROM
    142         48  C    CARTESIAN X    -1.453023     0.263449  KCAL/ANGSTROM
    143         48  C    CARTESIAN Y    -8.574039    -0.186326  KCAL/ANGSTROM
    144         48  C    CARTESIAN Z    -0.153467    -0.328886  KCAL/ANGSTROM
    145         49  C    CARTESIAN X     4.943740    -0.668442  KCAL/ANGSTROM
    146         49  C    CARTESIAN Y    -7.329992     0.594933  KCAL/ANGSTROM
    147         49  C    CARTESIAN Z     0.193736    -0.189211  KCAL/ANGSTROM
    148         50  C    CARTESIAN X     6.151841     1.600147  KCAL/ANGSTROM
    149         50  C    CARTESIAN Y    -7.222401    -0.159592  KCAL/ANGSTROM
    150         50  C    CARTESIAN Z     0.234857     0.069861  KCAL/ANGSTROM
    151         51  C    CARTESIAN X     7.568501    -1.064339  KCAL/ANGSTROM
    152         51  C    CARTESIAN Y    -7.073676     0.708855  KCAL/ANGSTROM
    153         51  C    CARTESIAN Z     0.285590    -1.069972  KCAL/ANGSTROM
    154         52  C    CARTESIAN X    -4.945822    -1.563622  KCAL/ANGSTROM
    155         52  C    CARTESIAN Y    -7.323057     1.325337  KCAL/ANGSTROM
    156         52  C    CARTESIAN Z    -0.240814    -0.072499  KCAL/ANGSTROM
    157         53  C    CARTESIAN X    -6.154614     0.777175  KCAL/ANGSTROM
    158         53  C    CARTESIAN Y    -7.226987    -0.476831  KCAL/ANGSTROM
    159         53  C    CARTESIAN Z    -0.275552    -0.094048  KCAL/ANGSTROM
    160         54  C    CARTESIAN X    -7.573533     0.498943  KCAL/ANGSTROM
    161         54  C    CARTESIAN Y    -7.086301     0.142533  KCAL/ANGSTROM
    162         54  C    CARTESIAN Z    -0.307721     0.559561  KCAL/ANGSTROM
    163         55  H    CARTESIAN X     3.398652    -0.262447  KCAL/ANGSTROM
    164         55  H    CARTESIAN Y     5.245899     0.649881  KCAL/ANGSTROM
    165         55  H    CARTESIAN Z     0.163257     0.484560  KCAL/ANGSTROM
    166         56  H    CARTESIAN X     3.390312    -0.033338  KCAL/ANGSTROM
    167         56  H    CARTESIAN Y     9.533404     0.023383  KCAL/ANGSTROM
    168         56  H    CARTESIAN Z     0.211769     0.131051  KCAL/ANGSTROM
    169         57  H    CARTESIAN X     0.927058    -0.547245  KCAL/ANGSTROM
    170         57  H    CARTESIAN Y     9.534723     0.570519  KCAL/ANGSTROM
    171         57  H    CARTESIAN Z     0.220461    -0.059252  KCAL/ANGSTROM
    172         58  H    CARTESIAN X    -0.927397     1.084959  KCAL/ANGSTROM
    173         58  H    CARTESIAN Y     9.533222     0.950216  KCAL/ANGSTROM
    174         58  H    CARTESIAN Z     0.244946    -0.068891  KCAL/ANGSTROM
    175         59  H    CARTESIAN X    -3.391737     0.219572  KCAL/ANGSTROM
    176         59  H    CARTESIAN Y     9.529247    -0.206081  KCAL/ANGSTROM
    177         59  H    CARTESIAN Z     0.208516     0.169574  KCAL/ANGSTROM
    178         60  H    CARTESIAN X    -3.397401     0.127289  KCAL/ANGSTROM
    179         60  H    CARTESIAN Y     5.242772     0.238844  KCAL/ANGSTROM
    180         60  H    CARTESIAN Z     0.110656     0.049961  KCAL/ANGSTROM
    181         61  H    CARTESIAN X    -2.487358     0.104789  KCAL/ANGSTROM
    182         61  H    CARTESIAN Y     3.656861     0.053940  KCAL/ANGSTROM
    183         61  H    CARTESIAN Z     0.164818     0.041827  KCAL/ANGSTROM
    184         62  H    CARTESIAN X     2.484812     0.424835  KCAL/ANGSTROM
    185         62  H    CARTESIAN Y     3.656637     0.050495  KCAL/ANGSTROM
    186         62  H    CARTESIAN Z     0.241940    -0.078272  KCAL/ANGSTROM
    187         63  H    CARTESIAN X    -2.495367    -0.419812  KCAL/ANGSTROM
    188         63  H    CARTESIAN Y     1.223043    -0.031332  KCAL/ANGSTROM
    189         63  H    CARTESIAN Z     0.163124     0.215436  KCAL/ANGSTROM
    190         64  H    CARTESIAN X     2.491481    -0.813806  KCAL/ANGSTROM
    191         64  H    CARTESIAN Y     1.222971    -0.023879  KCAL/ANGSTROM
    192         64  H    CARTESIAN Z     0.254230     0.110223  KCAL/ANGSTROM
    193         65  H    CARTESIAN X    -2.492896     0.857467  KCAL/ANGSTROM
    194         65  H    CARTESIAN Y    -1.222775     0.008679  KCAL/ANGSTROM
    195         65  H    CARTESIAN Z     0.106337     0.065503  KCAL/ANGSTROM
    196         66  H    CARTESIAN X     2.493382     0.165704  KCAL/ANGSTROM
    197         66  H    CARTESIAN Y    -1.224426     0.018835  KCAL/ANGSTROM
    198         66  H    CARTESIAN Z     0.237179     0.274117  KCAL/ANGSTROM
    199         67  H    CARTESIAN X    -2.483931     0.327924  KCAL/ANGSTROM
    200         67  H    CARTESIAN Y    -3.652339    -0.028766  KCAL/ANGSTROM
    201         67  H    CARTESIAN Z     0.002585    -0.134571  KCAL/ANGSTROM
    202         68  H    CARTESIAN X     2.486193    -0.411447  KCAL/ANGSTROM
    203         68  H    CARTESIAN Y    -3.657148    -0.074407  KCAL/ANGSTROM
    204         68  H    CARTESIAN Z     0.166819    -0.152345  KCAL/ANGSTROM
    205         69  H    CARTESIAN X     8.085505    -0.963714  KCAL/ANGSTROM
    206         69  H    CARTESIAN Y     7.877496    -0.271953  KCAL/ANGSTROM
    207         69  H    CARTESIAN Z     0.633639    -0.058613  KCAL/ANGSTROM
    208         70  H    CARTESIAN X     7.967514    -0.075852  KCAL/ANGSTROM
    209         70  H    CARTESIAN Y     7.053853    -0.142042  KCAL/ANGSTROM
    210         70  H    CARTESIAN Z    -0.939195    -0.301407  KCAL/ANGSTROM
    211         71  H    CARTESIAN X     7.903337     0.240509  KCAL/ANGSTROM
    212         71  H    CARTESIAN Y     6.108915    -0.880055  KCAL/ANGSTROM
    213         71  H    CARTESIAN Z     0.566313     0.382744  KCAL/ANGSTROM
    214         72  H    CARTESIAN X    -8.093974     1.010366  KCAL/ANGSTROM
    215         72  H    CARTESIAN Y     7.869490    -0.206465  KCAL/ANGSTROM
    216         72  H    CARTESIAN Z     0.510753    -0.033137  KCAL/ANGSTROM
    217         73  H    CARTESIAN X    -7.913314    -0.465401  KCAL/ANGSTROM
    218         73  H    CARTESIAN Y     6.101942    -0.986137  KCAL/ANGSTROM
    219         73  H    CARTESIAN Z     0.416287     0.360076  KCAL/ANGSTROM
    220         74  H    CARTESIAN X    -7.935913     0.217798  KCAL/ANGSTROM
    221         74  H    CARTESIAN Y     7.073890    -0.108538  KCAL/ANGSTROM
    222         74  H    CARTESIAN Z    -1.073118    -0.320777  KCAL/ANGSTROM
    223         75  H    CARTESIAN X     0.924242    -0.351771  KCAL/ANGSTROM
    224         75  H    CARTESIAN Y    -9.530246    -0.032411  KCAL/ANGSTROM
    225         75  H    CARTESIAN Z    -0.035866    -0.303411  KCAL/ANGSTROM
    226         76  H    CARTESIAN X     3.385122     0.117623  KCAL/ANGSTROM
    227         76  H    CARTESIAN Y    -9.531364    -0.131938  KCAL/ANGSTROM
    228         76  H    CARTESIAN Z     0.090404     0.308178  KCAL/ANGSTROM
    229         77  H    CARTESIAN X     3.395506     0.023315  KCAL/ANGSTROM
    230         77  H    CARTESIAN Y    -5.244411     0.007239  KCAL/ANGSTROM
    231         77  H    CARTESIAN Z     0.194116     0.011080  KCAL/ANGSTROM
    232         78  H    CARTESIAN X    -3.397038     0.302798  KCAL/ANGSTROM
    233         78  H    CARTESIAN Y    -5.239245    -0.376213  KCAL/ANGSTROM
    234         78  H    CARTESIAN Z    -0.099357     0.068322  KCAL/ANGSTROM
    235         79  H    CARTESIAN X    -3.384035    -0.184609  KCAL/ANGSTROM
    236         79  H    CARTESIAN Y    -9.523773    -0.415942  KCAL/ANGSTROM
    237         79  H    CARTESIAN Z    -0.275573    -0.056602  KCAL/ANGSTROM
    238         80  H    CARTESIAN X    -0.922713     0.319912  KCAL/ANGSTROM
    239         80  H    CARTESIAN Y    -9.526939     0.097959  KCAL/ANGSTROM
    240         80  H    CARTESIAN Z    -0.172088     0.069736  KCAL/ANGSTROM
    241         81  H    CARTESIAN X     7.864249    -0.279526  KCAL/ANGSTROM
    242         81  H    CARTESIAN Y    -6.132720     0.206593  KCAL/ANGSTROM
    243         81  H    CARTESIAN Z     0.788029     0.194272  KCAL/ANGSTROM
    244         82  H    CARTESIAN X     8.018392    -0.538561  KCAL/ANGSTROM
    245         82  H    CARTESIAN Y    -7.056430    -0.007424  KCAL/ANGSTROM
    246         82  H    CARTESIAN Z    -0.723547     0.669246  KCAL/ANGSTROM
    247         83  H    CARTESIAN X     8.050640    -0.580254  KCAL/ANGSTROM
    248         83  H    CARTESIAN Y    -7.899962     0.206907  KCAL/ANGSTROM
    249         83  H    CARTESIAN Z     0.840396     0.013100  KCAL/ANGSTROM
    250         84  H    CARTESIAN X    -7.898953     0.398838  KCAL/ANGSTROM
    251         84  H    CARTESIAN Y    -6.127542    -0.306930  KCAL/ANGSTROM
    252         84  H    CARTESIAN Z     0.137153    -0.383704  KCAL/ANGSTROM
    253         85  H    CARTESIAN X    -8.083954     0.334126  KCAL/ANGSTROM
    254         85  H    CARTESIAN Y    -7.890595     0.477842  KCAL/ANGSTROM
    255         85  H    CARTESIAN Z     0.252759     0.120153  KCAL/ANGSTROM
    256         86  H    CARTESIAN X    -7.969226    -0.006354  KCAL/ANGSTROM
    257         86  H    CARTESIAN Y    -7.106425     0.596486  KCAL/ANGSTROM
    258         86  H    CARTESIAN Z    -1.341046    -0.153153  KCAL/ANGSTROM




   ATOM   CHEMICAL          X               Y               Z
  NUMBER   SYMBOL      (ANGSTROMS)     (ANGSTROMS)     (ANGSTROMS)
 
     1       C         -0.73010522  *   7.37751578  *   0.20053122  *
     2       C         -1.43469906  *   6.15977191  *   0.17369724  *
     3       C         -0.72355210  *   4.88337490  *   0.18122226  *
     4       C          0.72226846  *   4.88403853  *   0.19795294  *
     5       C          1.43516648  *   6.16034233  *   0.19666597  *
     6       C          0.73033008  *   7.37827143  *   0.20526633  *
     7       C          2.83405272  *   6.17832250  *   0.17582683  *
     8       C          3.54630393  *   7.37974763  *   0.18293029  *
     9       C          2.84443577  *   8.59227554  *   0.20330416  *
    10       C          1.45732035  *   8.58025998  *   0.21120428  *
    11       C         -1.45862444  *   8.57852869  *   0.21609858  *
    12       C         -2.84519485  *   8.58898135  *   0.19293076  *
    13       C         -3.54554672  *   7.37714425  *   0.14813072  *
    14       C         -2.83404108  *   6.17621362  *   0.14179792  *
    15       C         -1.39684420  *   3.69266681  *   0.17635399  *
    16       C         -0.71650151  *   2.43225074  *   0.18941853  *
    17       C          0.71366953  *   2.43163969  *   0.21410880  *
    18       C          1.39339622  *   3.69255918  *   0.22099953  *
    19       C         -1.40558403  *   1.23040865  *   0.17464575  *
    20       C         -0.71433721  *   0.00028138  *   0.16995190  *
    21       C          0.71319754  *  -0.00115184  *   0.20496935  *
    22       C          1.40416361  *   1.22954639  *   0.22743047  *
    23       C         -1.40558426  *  -1.22935760  *   0.12823173  *
    24       C         -0.71407035  *  -2.43082462  *   0.10768149  *
    25       C          0.71554264  *  -2.43219487  *   0.14931954  *
    26       C          1.40464158  *  -1.23106194  *   0.19974274  *
    27       C         -1.39448075  *  -3.68944105  *   0.04208334  *
    28       C         -0.72177468  *  -4.88057533  *   0.02434397  *
    29       C          0.72300387  *  -4.88140665  *   0.07773709  *
    30       C          1.39673287  *  -3.69191993  *   0.13355779  *
    31       C          4.95089835  *   7.33018108  *   0.15442680  *
    32       C          6.15758659  *   7.20553438  *   0.12823260  *
    33       C          7.57594936  *   7.05707936  *   0.09605441  *
    34       C         -4.94930600  *   7.31985335  *   0.09798651  *
    35       C         -6.15482154  *   7.20476838  *   0.04155719  *
    36       C         -7.57175571  *   7.05768391  *  -0.02789294  *
    37       C         -1.43359480  *  -6.15470897  *  -0.05299544  *
    38       C         -0.72900547  *  -7.37371031  *  -0.06864155  *
    39       C          0.72916904  *  -7.37436908  *   0.00477738  *
    40       C          1.43349083  *  -6.15796447  *   0.07268016  *
    41       C          1.45375328  *  -8.57785759  *   0.01455414  *
    42       C          2.83870998  *  -8.59004333  *   0.08073025  *
    43       C          3.54029096  *  -7.37859308  *   0.14064781  *
    44       C          2.83122532  *  -6.17697812  *   0.14066847  *
    45       C         -2.83310823  *  -6.17245066  *  -0.11316825  *
    46       C         -3.54135916  *  -7.37166023  *  -0.19061428  *
    47       C         -2.83868771  *  -8.58345788  *  -0.21212689  *
    48       C         -1.45302306  *  -8.57403929  *  -0.15346745  *
    49       C          4.94373978  *  -7.32999157  *   0.19373641  *
    50       C          6.15184083  *  -7.22240140  *   0.23485669  *
    51       C          7.56850090  *  -7.07367602  *   0.28559004  *
    52       C         -4.94582172  *  -7.32305658  *  -0.24081418  *
    53       C         -6.15461354  *  -7.22698733  *  -0.27555151  *
    54       C         -7.57353287  *  -7.08630054  *  -0.30772091  *
    55       H          3.39865242  *   5.24589894  *   0.16325727  *
    56       H          3.39031242  *   9.53340391  *   0.21176920  *
    57       H          0.92705750  *   9.53472284  *   0.22046086  *
    58       H         -0.92739684  *   9.53322163  *   0.24494588  *
    59       H         -3.39173699  *   9.52924725  *   0.20851614  *
    60       H         -3.39740125  *   5.24277233  *   0.11065569  *
    61       H         -2.48735812  *   3.65686113  *   0.16481752  *
    62       H          2.48481215  *   3.65663708  *   0.24193951  *
    63       H         -2.49536653  *   1.22304335  *   0.16312373  *
    64       H          2.49148141  *   1.22297143  *   0.25423031  *
    65       H         -2.49289568  *  -1.22277470  *   0.10633738  *
    66       H          2.49338182  *  -1.22442551  *   0.23717868  *
    67       H         -2.48393082  *  -3.65233948  *   0.00258532  *
    68       H          2.48619326  *  -3.65714782  *   0.16681854  *
    69       H          8.08550451  *   7.87749641  *   0.63363852  *
    70       H          7.96751395  *   7.05385306  *  -0.93919513  *
    71       H          7.90333724  *   6.10891476  *   0.56631349  *
    72       H         -8.09397404  *   7.86948953  *   0.51075257  *
    73       H         -7.91331377  *   6.10194231  *   0.41628722  *
    74       H         -7.93591298  *   7.07389035  *  -1.07311813  *
    75       H          0.92424231  *  -9.53024615  *  -0.03586565  *
    76       H          3.38512247  *  -9.53136424  *   0.09040353  *
    77       H          3.39550580  *  -5.24441077  *   0.19411572  *
    78       H         -3.39703801  *  -5.23924499  *  -0.09935724  *
    79       H         -3.38403534  *  -9.52377284  *  -0.27557332  *
    80       H         -0.92271335  *  -9.52693852  *  -0.17208767  *
    81       H          7.86424906  *  -6.13272010  *   0.78802933  *
    82       H          8.01839249  *  -7.05642961  *  -0.72354682  *
    83       H          8.05064020  *  -7.89996197  *   0.84039588  *
    84       H         -7.89895293  *  -6.12754226  *   0.13715292  *
    85       H         -8.08395373  *  -7.89059463  *   0.25275871  *
    86       H         -7.96922551  *  -7.10642458  *  -1.34104615  *

                             CARTESIAN COORDINATES

   1    C       -0.730105216     7.377515778     0.200531222
   2    C       -1.434699059     6.159771914     0.173697241
   3    C       -0.723552100     4.883374899     0.181222257
   4    C        0.722268456     4.884038525     0.197952939
   5    C        1.435166476     6.160342327     0.196665974
   6    C        0.730330076     7.378271425     0.205266325
   7    C        2.834052720     6.178322495     0.175826827
   8    C        3.546303931     7.379747626     0.182930288
   9    C        2.844435772     8.592275541     0.203304156
  10    C        1.457320348     8.580259985     0.211204281
  11    C       -1.458624441     8.578528693     0.216098578
  12    C       -2.845194848     8.588981350     0.192930757
  13    C       -3.545546717     7.377144246     0.148130723
  14    C       -2.834041084     6.176213617     0.141797924
  15    C       -1.396844204     3.692666808     0.176353993
  16    C       -0.716501508     2.432250737     0.189418530
  17    C        0.713669527     2.431639693     0.214108802
  18    C        1.393396221     3.692559184     0.220999526
  19    C       -1.405584026     1.230408652     0.174645754
  20    C       -0.714337213     0.000281377     0.169951896
  21    C        0.713197539    -0.001151838     0.204969354
  22    C        1.404163609     1.229546393     0.227430470
  23    C       -1.405584264    -1.229357600     0.128231727
  24    C       -0.714070346    -2.430824623     0.107681489
  25    C        0.715542641    -2.432194868     0.149319541
  26    C        1.404641582    -1.231061943     0.199742738
  27    C       -1.394480745    -3.689441051     0.042083339
  28    C       -0.721774684    -4.880575334     0.024343972
  29    C        0.723003869    -4.881406648     0.077737085
  30    C        1.396732872    -3.691919926     0.133557789
  31    C        4.950898355     7.330181083     0.154426803
  32    C        6.157586586     7.205534381     0.128232601
  33    C        7.575949360     7.057079362     0.096054406
  34    C       -4.949305999     7.319853349     0.097986507
  35    C       -6.154821536     7.204768384     0.041557190
  36    C       -7.571755707     7.057683914    -0.027892938
  37    C       -1.433594803    -6.154708968    -0.052995437
  38    C       -0.729005474    -7.373710311    -0.068641550
  39    C        0.729169037    -7.374369083     0.004777381
  40    C        1.433490826    -6.157964472     0.072680155
  41    C        1.453753277    -8.577857593     0.014554143
  42    C        2.838709981    -8.590043331     0.080730249
  43    C        3.540290961    -7.378593080     0.140647811
  44    C        2.831225316    -6.176978121     0.140668474
  45    C       -2.833108229    -6.172450656    -0.113168251
  46    C       -3.541359163    -7.371660225    -0.190614277
  47    C       -2.838687705    -8.583457879    -0.212126886
  48    C       -1.453023063    -8.574039289    -0.153467448
  49    C        4.943739778    -7.329991571     0.193736411
  50    C        6.151840831    -7.222401398     0.234856688
  51    C        7.568500897    -7.073676017     0.285590042
  52    C       -4.945821719    -7.323056578    -0.240814181
  53    C       -6.154613536    -7.226987333    -0.275551508
  54    C       -7.573532871    -7.086300540    -0.307720912
  55    H        3.398652416     5.245898943     0.163257269
  56    H        3.390312423     9.533403907     0.211769203
  57    H        0.927057505     9.534722840     0.220460861
  58    H       -0.927396843     9.533221631     0.244945881
  59    H       -3.391736991     9.529247249     0.208516139
  60    H       -3.397401255     5.242772328     0.110655685
  61    H       -2.487358116     3.656861126     0.164817524
  62    H        2.484812154     3.656637084     0.241939510
  63    H       -2.495366534     1.223043346     0.163123734
  64    H        2.491481414     1.222971428     0.254230311
  65    H       -2.492895683    -1.222774702     0.106337383
  66    H        2.493381815    -1.224425512     0.237178677
  67    H       -2.483930816    -3.652339480     0.002585315
  68    H        2.486193260    -3.657147816     0.166818542
  69    H        8.085504507     7.877496406     0.633638518
  70    H        7.967513949     7.053853057    -0.939195131
  71    H        7.903337236     6.108914764     0.566313487
  72    H       -8.093974042     7.869489534     0.510752568
  73    H       -7.913313771     6.101942312     0.416287224
  74    H       -7.935912975     7.073890350    -1.073118133
  75    H        0.924242308    -9.530246145    -0.035865652
  76    H        3.385122465    -9.531364237     0.090403527
  77    H        3.395505798    -5.244410771     0.194115720
  78    H       -3.397038006    -5.239244992    -0.099357241
  79    H       -3.384035343    -9.523772843    -0.275573315
  80    H       -0.922713345    -9.526938520    -0.172087669
  81    H        7.864249063    -6.132720102     0.788029332
  82    H        8.018392489    -7.056429608    -0.723546823
  83    H        8.050640202    -7.899961971     0.840395882
  84    H       -7.898952929    -6.127542261     0.137152921
  85    H       -8.083953733    -7.890594628     0.252758712
  86    H       -7.969225514    -7.106424581    -1.341046153


           Empirical Formula: C54 H32  =    86 atoms



      MOLECULAR POINT GROUP   :   C1  


                  EIGENVALUES  
 -31.59899 -31.51284 -31.25573 -30.72735 -30.62656 -30.62637 -29.88237 -28.84026
 -28.21450 -27.96367 -27.82039 -27.62038 -27.53962 -27.45302 -27.36960 -27.30936
 -26.96764 -26.86511 -26.17215 -26.11300 -26.00139 -25.80566 -24.85175 -24.84890
 -24.61617 -24.51819 -23.75421 -23.68151 -23.32569 -23.32251 -22.72320 -22.25554
 -21.89486 -21.80255 -21.30861 -20.91678 -20.53363 -20.29668 -20.26573 -19.98789
 -19.77476 -19.35209 -18.91074 -18.49779 -18.47595 -17.78434 -17.34533 -16.96623
 -16.78207 -16.67300 -16.65647 -16.53955 -16.07803 -15.92645 -15.70858 -15.55351
 -15.48457 -15.45391 -15.45100 -15.30443 -15.14223 -15.12507 -15.09206 -15.07698
 -15.04268 -14.99596 -14.99083 -14.96717 -14.90592 -14.84571 -14.76042 -14.75069
 -14.66074 -14.59832 -14.52741 -14.47550 -14.43057 -14.42266 -14.34049 -14.30808
 -14.22949 -14.08276 -13.75656 -13.75198 -13.68855 -13.57154 -13.57109 -13.55920
 -13.29942 -13.13035 -12.92839 -12.87926 -12.64259 -12.55237 -12.53194 -12.37065
 -12.20173 -12.04668 -11.92908 -11.80826 -11.65305 -11.59248 -11.52254 -11.50236
 -11.35785 -11.35331 -11.20963 -11.10442 -10.73814 -10.54904 -10.54566 -10.52343
 -10.51958 -10.32972 -10.11724  -9.85937  -9.70272  -9.70149  -9.30953  -9.18084
  -8.73776  -8.69701  -8.41679  -7.74783  -1.75663  -1.02993  -0.75058  -0.74234
  -0.39954  -0.31506   0.09503   0.21950   0.22172   0.27054   0.45922   0.85720
   1.07475   1.22218   1.47633   1.47712   1.48193   1.48388   1.60197   1.61595
   1.69394   2.00777   2.18859   2.54099   2.69990   2.70037   2.90151   3.10340
   3.16995   3.32605   3.38516   3.39165   3.46079   3.69095   3.81359   3.92901
   3.93154   3.93353   4.06934   4.07265   4.10002   4.17093   4.19833   4.22859
   4.24391   4.35241   4.41032   4.49289   4.60517   4.61100   4.64022   4.66017
   4.71333   4.74344   4.74420   4.74752   4.78945   4.81563   4.87639   4.89852
   4.93865   4.94145   4.94844   4.98868   5.02746   5.04901   5.05154   5.12931
   5.16174   5.16930   5.18837   5.20122   5.20686   5.21301   5.21735   5.22451
   5.22728   5.22999   5.23324   5.24657   5.27119   5.27496   5.27579   5.34646
   5.38168   5.41426   5.41608   5.55530   5.56816   5.58989   5.63323   5.64441
   5.68732   5.69445   5.70454   5.71284   5.83798   5.84836   5.85087   5.90022
   5.90777   5.90942   5.92655   5.95849   6.07323   6.08181   6.09435   6.13107
   6.13406   6.13952   6.18127   6.18577   6.19545   6.19954   6.27536   6.28252
   6.30165   6.30396   6.37187   6.37429   6.87530   6.87666   6.87908   6.87991


              NET ATOMIC CHARGES AND DIPOLE CONTRIBUTIONS

  ATOM NO.   TYPE          CHARGE      No. of ELECS.   s-Pop       p-Pop       
    1          C          -0.003982        4.0040     1.06328     2.94071
    2          C          -0.006574        4.0066     1.06246     2.94411
    3          C           0.001470        3.9985     1.06379     2.93474
    4          C           0.001319        3.9987     1.06382     2.93486
    5          C          -0.006249        4.0062     1.06239     2.94386
    6          C          -0.003858        4.0039     1.06327     2.94059
    7          C          -0.149828        4.1498     1.08548     3.06435
    8          C           0.045171        3.9548     1.03973     2.91510
    9          C          -0.140176        4.1402     1.08346     3.05672
   10          C          -0.149329        4.1493     1.08335     3.06598
   11          C          -0.149207        4.1492     1.08344     3.06576
   12          C          -0.140287        4.1403     1.08301     3.05728
   13          C           0.045116        3.9549     1.03944     2.91544
   14          C          -0.149788        4.1498     1.08577     3.06402
   15          C          -0.157582        4.1576     1.08539     3.07219
   16          C           0.004746        3.9953     1.05947     2.93578
   17          C           0.004768        3.9952     1.05966     2.93558
   18          C          -0.157587        4.1576     1.08551     3.07207
   19          C          -0.163363        4.1634     1.08605     3.07731
   20          C          -0.003968        4.0040     1.06086     2.94311
   21          C          -0.003898        4.0039     1.06090     2.94300
   22          C          -0.163117        4.1631     1.08601     3.07711
   23          C          -0.163060        4.1631     1.08601     3.07705
   24          C           0.004592        3.9954     1.05961     2.93580
   25          C           0.004750        3.9952     1.05944     2.93581
   26          C          -0.163304        4.1633     1.08602     3.07728
   27          C          -0.157348        4.1573     1.08544     3.07190
   28          C           0.001304        3.9987     1.06380     2.93490
   29          C           0.001544        3.9985     1.06376     2.93469
   30          C          -0.157464        4.1575     1.08537     3.07209
   31          C          -0.147671        4.1477     1.08457     3.06310
   32          C          -0.028240        4.0282     1.09495     2.93329
   33          C          -0.406474        4.4065     1.03319     3.37329
   34          C          -0.147597        4.1476     1.08429     3.06331
   35          C          -0.028358        4.0284     1.09460     2.93376
   36          C          -0.406558        4.4066     1.03315     3.37341
   37          C          -0.006353        4.0064     1.06286     2.94349
   38          C          -0.003981        4.0040     1.06336     2.94062
   39          C          -0.003891        4.0039     1.06327     2.94062
   40          C          -0.006685        4.0067     1.06232     2.94437
   41          C          -0.149285        4.1493     1.08319     3.06609
   42          C          -0.140232        4.1402     1.08338     3.05685
   43          C           0.044856        3.9551     1.03938     2.91576
   44          C          -0.149613        4.1496     1.08558     3.06403
   45          C          -0.149505        4.1495     1.08552     3.06399
   46          C           0.045072        3.9549     1.03937     2.91556
   47          C          -0.140272        4.1403     1.08348     3.05680
   48          C          -0.149337        4.1493     1.08308     3.06626
   49          C          -0.147670        4.1477     1.08440     3.06327
   50          C          -0.028272        4.0283     1.09462     2.93365
   51          C          -0.406728        4.4067     1.03271     3.37402
   52          C          -0.147626        4.1476     1.08445     3.06318
   53          C          -0.028170        4.0282     1.09469     2.93348
   54          C          -0.406543        4.4065     1.03272     3.37382
   55          H           0.161931        0.8381     0.83807
   56          H           0.157220        0.8428     0.84278
   57          H           0.155539        0.8445     0.84446
   58          H           0.155717        0.8443     0.84428
   59          H           0.157164        0.8428     0.84284
   60          H           0.162171        0.8378     0.83783
   61          H           0.159491        0.8405     0.84051
   62          H           0.159472        0.8405     0.84053
   63          H           0.158385        0.8416     0.84162
   64          H           0.158010        0.8420     0.84199
   65          H           0.158061        0.8419     0.84194
   66          H           0.158342        0.8417     0.84166
   67          H           0.159391        0.8406     0.84061
   68          H           0.159451        0.8405     0.84055
   69          H           0.170086        0.8299     0.82991
   70          H           0.171065        0.8289     0.82894
   71          H           0.169880        0.8301     0.83012
   72          H           0.170094        0.8299     0.82991
   73          H           0.169880        0.8301     0.83012
   74          H           0.171050        0.8289     0.82895
   75          H           0.155598        0.8444     0.84440
   76          H           0.157238        0.8428     0.84276
   77          H           0.162278        0.8377     0.83772
   78          H           0.161985        0.8380     0.83802
   79          H           0.157272        0.8427     0.84273
   80          H           0.155564        0.8444     0.84444
   81          H           0.169951        0.8300     0.83005
   82          H           0.170897        0.8291     0.82910
   83          H           0.170324        0.8297     0.82968
   84          H           0.169516        0.8305     0.83048
   85          H           0.170339        0.8297     0.82966
   86          H           0.170960        0.8290     0.82904
 DIPOLE           X         Y         Z       TOTAL
 POINT-CHG.     0.006    -0.001    -0.125     0.125
 HYBRID         0.001    -0.001    -0.001     0.001
 SUM            0.007    -0.002    -0.126     0.126


          ATOMIC ORBITAL ELECTRON POPULATIONS

     Atom    s        px        py        pz   
    1  C   1.06328   0.96503   0.97873   0.99694
    2  C   1.06246   0.97520   0.96955   0.99937
    3  C   1.06379   0.97149   0.97064   0.99260
    4  C   1.06382   0.97150   0.97050   0.99285
    5  C   1.06239   0.97504   0.96943   0.99938
    6  C   1.06327   0.96503   0.97865   0.99691
    7  C   1.08548   1.00047   1.05814   1.00574
    8  C   1.03973   0.93606   0.98435   0.99468
    9  C   1.08346   1.00477   1.05373   0.99821
   10  C   1.08335   1.00552   1.05486   1.00560
   11  C   1.08344   1.00528   1.05505   1.00544
   12  C   1.08301   1.00496   1.05370   0.99862
   13  C   1.03944   0.93626   0.98449   0.99469
   14  C   1.08577   1.00035   1.05826   1.00541
   15  C   1.08539   1.08468   0.97509   1.01243
   16  C   1.05947   0.97621   0.97214   0.98744
   17  C   1.05966   0.97611   0.97195   0.98751
   18  C   1.08551   1.08495   0.97514   1.01198
   19  C   1.08605   1.08291   0.98073   1.01367
   20  C   1.06086   0.97722   0.97640   0.98949
   21  C   1.06090   0.97715   0.97633   0.98951
   22  C   1.08601   1.08268   0.98062   1.01382
   23  C   1.08601   1.08259   0.98074   1.01373
   24  C   1.05961   0.97608   0.97217   0.98754
   25  C   1.05944   0.97611   0.97220   0.98750
   26  C   1.08602   1.08280   0.98076   1.01372
   27  C   1.08544   1.08463   0.97526   1.01201
   28  C   1.06380   0.97147   0.97064   0.99279
   29  C   1.06376   0.97147   0.97064   0.99258
   30  C   1.08537   1.08445   0.97518   1.01246
   31  C   1.08457   0.97541   1.04017   1.04752
   32  C   1.09495   0.96430   0.99143   0.97756
   33  C   1.03319   1.01036   1.18066   1.18227
   34  C   1.08429   0.97558   1.04018   1.04754
   35  C   1.09460   0.96431   0.99198   0.97746
   36  C   1.03315   1.01076   1.18073   1.18191
   37  C   1.06286   0.97485   0.96935   0.99929
   38  C   1.06336   0.96530   0.97866   0.99667
   39  C   1.06327   0.96532   0.97860   0.99670
   40  C   1.06232   0.97522   0.96957   0.99958
   41  C   1.08319   1.00564   1.05470   1.00576
   42  C   1.08338   1.00494   1.05383   0.99808
   43  C   1.03938   0.93640   0.98451   0.99485
   44  C   1.08558   1.00056   1.05806   1.00541
   45  C   1.08552   1.00049   1.05824   1.00525
   46  C   1.03937   0.93617   0.98450   0.99489
   47  C   1.08348   1.00479   1.05361   0.99840
   48  C   1.08308   1.00564   1.05487   1.00575
   49  C   1.08440   0.97526   1.04051   1.04750
   50  C   1.09462   0.96402   0.99197   0.97765
   51  C   1.03271   1.01097   1.18097   1.18208
   52  C   1.08445   0.97519   1.04059   1.04740
   53  C   1.09469   0.96380   0.99201   0.97767
   54  C   1.03272   1.01023   1.18110   1.18249
   55  H   0.83807
   56  H   0.84278
   57  H   0.84446
   58  H   0.84428
   59  H   0.84284
   60  H   0.83783
   61  H   0.84051
   62  H   0.84053
   63  H   0.84162
   64  H   0.84199
   65  H   0.84194
   66  H   0.84166
   67  H   0.84061
   68  H   0.84055
   69  H   0.82991
   70  H   0.82894
   71  H   0.83012
   72  H   0.82991
   73  H   0.83012
   74  H   0.82895
   75  H   0.84440
   76  H   0.84276
   77  H   0.83772
   78  H   0.83802
   79  H   0.84273
   80  H   0.84444
   81  H   0.83005
   82  H   0.82910
   83  H   0.82968
   84  H   0.83048
   85  H   0.82966
   86  H   0.82904

 **********************
 *                    *
 * JOB ENDED NORMALLY *
 *                    *
 **********************



 TOTAL JOB TIME:            10.26 SECONDS

 == MOPAC DONE ==
