 *******************************************************************************
 ** Site#: 9602  E-mail support: MrMOPAC@OpenMOPAC.net  Version 16.035L 64BITS**
 *******************************************************************************
 ** Cite this program as: MOPAC2016, Version: 16.035L, James J. P. Stewart,   **
 ** Stewart Computational Chemistry, web-site: HTTP://OpenMOPAC.net.          **
 *******************************************************************************
 **                                                                           **
 **                                MOPAC2016                                  **
 **                                                                           **
 *******************************************************************************

                              PM7 CALCULATION RESULTS


 *******************************************************************************
 *  CALCULATION DONE:                                Fri Apr 28 02:44:53 2017  *
 *  PM7        - The PM7 Hamiltonian to be used
 *
 *
 *
 *                 CHARGE ON SYSTEM = 0
 *
 *
 *
 *  BFGS       - USE THE BFGS GEOMETRY OPTIMIZER
 *  T=         - A TIME OF 172800.0 SECONDS REQUESTED
 *  DUMP=N     - RESTART FILE WRITTEN EVERY  7200.000 SECONDS
 *******************************************************************************
PM7 BFGS CHARGE=0
 chassi-A2

   ATOM   CHEMICAL          X               Y               Z
  NUMBER   SYMBOL      (ANGSTROMS)     (ANGSTROMS)     (ANGSTROMS)
 
     1       C         -1.06174000  *  -0.14279000  *   0.00270000  *
     2       C         -0.45744000  *   1.10446000  *  -0.00066000  *
     3       C          0.93408000  *   1.21925000  *  -0.14075000  *
     4       C          1.73223000  *   0.05997000  *  -0.24195000  *
     5       C          1.11189000  *  -1.19773000  *  -0.24003000  *
     6       C         -0.27903000  *  -1.30033000  *  -0.13619000  *
     7       C          3.13156000  *   0.15892000  *  -0.37268000  *
     8       C          4.33789000  *   0.25283000  *  -0.50756000  *
     9       C          5.72714000  *   0.35855000  *  -0.71885000  *
    10       C          6.33518000  *   1.61270000  *  -0.82586000  *
    11       C          7.69442000  *   1.73406000  *  -1.13467000  *
    12       C          8.48870000  *   0.57994000  *  -1.31029000  *
    13       C          7.89496000  *  -0.67601000  *  -1.16238000  *
    14       C          6.53047000  *  -0.79014000  *  -0.88222000  *
    15       C          9.83679000  *   0.68589000  *  -1.69744000  *
    16       C         10.98234000  *   0.78898000  *  -2.09471000  *
    17       C         12.28787000  *   0.89391000  *  -2.61381000  *
    18       C         12.84135000  *   2.15121000  *  -2.88983000  *
    19       C         14.11601000  *   2.25732000  *  -3.45837000  *
    20       C         14.87621000  *   1.10594000  *  -3.72337000  *
    21       C         14.33770000  *  -0.14031000  *  -3.44823000  *
    22       C         13.04543000  *  -0.25557000  *  -2.91380000  *
    23       C         12.50417000  *  -1.53488000  *  -2.72308000  *
    24       C         14.65485000  *   3.50755000  *  -3.81380000  *
    25       C         12.01975000  *  -2.63950000  *  -2.59560000  *
    26       C         11.43763000  *  -3.93315000  *  -2.45761000  *
    27       C         15.14561000  *   4.55699000  *  -4.17513000  *
    28       C         15.72713000  *   5.78834000  *  -4.60195000  *
    29       C          5.94221000  *  -2.05836000  *  -0.79996000  *
    30       C          8.26017000  *   3.00580000  *  -1.32110000  *
    31       C         -0.93778000  *  -2.54321000  *  -0.19756000  *
    32       C         -1.56545000  *  -3.57860000  *  -0.28411000  *
    33       C         -2.29619000  *  -4.79891000  *  -0.39704000  *
    34       C          1.48967000  *   2.50815000  *  -0.20786000  *
    35       C          1.95399000  *   3.62625000  *  -0.29724000  *
    36       C          2.52782000  *   4.92661000  *  -0.41893000  *
    37       C          5.38491000  *  -3.13364000  *  -0.74902000  *
    38       C          4.71320000  *  -4.38916000  *  -0.70481000  *
    39       C          8.76423000  *   4.09127000  *  -1.52288000  *
    40       C          9.37650000  *   5.35256000  *  -1.78530000  *
    41       H         -2.14165000  *  -0.23432000  *   0.10290000  *
    42       H         -1.06333000  *   2.00458000  *   0.09615000  *
    43       H          1.71680000  *  -2.09976000  *  -0.32795000  *
    44       H          5.73316000  *   2.51038000  *  -0.68889000  *
    45       H          8.50099000  *  -1.57314000  *  -1.28678000  *
    46       H         12.26909000  *   3.05242000  *  -2.66873000  *
    47       H         15.87413000  *   1.19986000  *  -4.14971000  *
    48       H         14.90958000  *  -1.04588000  *  -3.65650000  *
    49       H         12.08894000  *  -4.61607000  *  -1.88144000  *
    50       H         11.25472000  *  -4.40643000  *  -3.44112000  *
    51       H         10.46340000  *  -3.89485000  *  -1.93423000  *
    52       H         16.77914000  *   5.89575000  *  -4.27535000  *
    53       H         15.17394000  *   6.66105000  *  -4.21115000  *
    54       H         15.72693000  *   5.88369000  *  -5.70454000  *
    55       H         -1.79248000  *  -5.63239000  *   0.12664000  *
    56       H         -2.41718000  *  -5.10927000  *  -1.45259000  *
    57       H         -3.31331000  *  -4.71493000  *   0.02988000  *
    58       H          3.52022000  *   4.98606000  *   0.06791000  *
    59       H          1.89364000  *   5.70602000  *   0.04105000  *
    60       H          2.67379000  *   5.21254000  *  -1.47873000  *
    61       H          5.28454000  *  -5.14552000  *  -0.13642000  *
    62       H          4.54650000  *  -4.79923000  *  -1.71928000  *
    63       H          3.71922000  *  -4.30649000  *  -0.22454000  *
    64       H         10.40520000  *   5.41155000  *  -1.38180000  *
    65       H          8.80226000  *   6.18515000  *  -1.34135000  *
    66       H          9.45198000  *   5.55377000  *  -2.87103000  *
 


          CARTESIAN COORDINATES 

    NO.       ATOM         X         Y         Z

     1         C       -1.0617   -0.1428    0.0027
     2         C       -0.4574    1.1045   -0.0007
     3         C        0.9341    1.2192   -0.1408
     4         C        1.7322    0.0600   -0.2420
     5         C        1.1119   -1.1977   -0.2400
     6         C       -0.2790   -1.3003   -0.1362
     7         C        3.1316    0.1589   -0.3727
     8         C        4.3379    0.2528   -0.5076
     9         C        5.7271    0.3586   -0.7189
    10         C        6.3352    1.6127   -0.8259
    11         C        7.6944    1.7341   -1.1347
    12         C        8.4887    0.5799   -1.3103
    13         C        7.8950   -0.6760   -1.1624
    14         C        6.5305   -0.7901   -0.8822
    15         C        9.8368    0.6859   -1.6974
    16         C       10.9823    0.7890   -2.0947
    17         C       12.2879    0.8939   -2.6138
    18         C       12.8414    2.1512   -2.8898
    19         C       14.1160    2.2573   -3.4584
    20         C       14.8762    1.1059   -3.7234
    21         C       14.3377   -0.1403   -3.4482
    22         C       13.0454   -0.2556   -2.9138
    23         C       12.5042   -1.5349   -2.7231
    24         C       14.6548    3.5076   -3.8138
    25         C       12.0198   -2.6395   -2.5956
    26         C       11.4376   -3.9331   -2.4576
    27         C       15.1456    4.5570   -4.1751
    28         C       15.7271    5.7883   -4.6020
    29         C        5.9422   -2.0584   -0.8000
    30         C        8.2602    3.0058   -1.3211
    31         C       -0.9378   -2.5432   -0.1976
    32         C       -1.5655   -3.5786   -0.2841
    33         C       -2.2962   -4.7989   -0.3970
    34         C        1.4897    2.5082   -0.2079
    35         C        1.9540    3.6263   -0.2972
    36         C        2.5278    4.9266   -0.4189
    37         C        5.3849   -3.1336   -0.7490
    38         C        4.7132   -4.3892   -0.7048
    39         C        8.7642    4.0913   -1.5229
    40         C        9.3765    5.3526   -1.7853
    41         H       -2.1416   -0.2343    0.1029
    42         H       -1.0633    2.0046    0.0961
    43         H        1.7168   -2.0998   -0.3280
    44         H        5.7332    2.5104   -0.6889
    45         H        8.5010   -1.5731   -1.2868
    46         H       12.2691    3.0524   -2.6687
    47         H       15.8741    1.1999   -4.1497
    48         H       14.9096   -1.0459   -3.6565
    49         H       12.0889   -4.6161   -1.8814
    50         H       11.2547   -4.4064   -3.4411
    51         H       10.4634   -3.8948   -1.9342
    52         H       16.7791    5.8957   -4.2754
    53         H       15.1739    6.6611   -4.2111
    54         H       15.7269    5.8837   -5.7045
    55         H       -1.7925   -5.6324    0.1266
    56         H       -2.4172   -5.1093   -1.4526
    57         H       -3.3133   -4.7149    0.0299
    58         H        3.5202    4.9861    0.0679
    59         H        1.8936    5.7060    0.0411
    60         H        2.6738    5.2125   -1.4787
    61         H        5.2845   -5.1455   -0.1364
    62         H        4.5465   -4.7992   -1.7193
    63         H        3.7192   -4.3065   -0.2245
    64         H       10.4052    5.4116   -1.3818
    65         H        8.8023    6.1852   -1.3414
    66         H        9.4520    5.5538   -2.8710

 General Reference for PM7:
 "Optimization of Parameters for Semiempirical Methods VI: More Modifications to the 
 NDDO Approximations and Re-optimization of Parameters", J. J. P. Stewart, J. Mol. Mod., 1:32, 19 (2013)
 http://www.springerlink.com/openurl.asp?genre=article&id=doi:10.1007/s00894-012-1667-x

           Empirical Formula: C40 H26  =    66 atoms



      MOLECULAR POINT GROUP   :   C1  


      RHF CALCULATION, NO. OF DOUBLY OCCUPIED LEVELS = 93


          Geometry optimization using BFGS
 TEST ON X SATISFIED
                    HOWEVER, A COMPONENT OF GRADIENT IS LARGER THAN  1.00

 CYCLE:     1 TIME:   0.202 TIME LEFT:  2.00D  GRAD.:    14.355 HEAT:  450.1653
 TEST ON X SATISFIED
                    HOWEVER, A COMPONENT OF GRADIENT IS LARGER THAN  1.00

 CYCLE:     2 TIME:   0.126 TIME LEFT:  2.00D  GRAD.:    18.044 HEAT:  450.1450
 CYCLE:     3 TIME:   0.131 TIME LEFT:  2.00D  GRAD.:    19.982 HEAT:  450.1094
 CYCLE:     4 TIME:   0.124 TIME LEFT:  2.00D  GRAD.:    17.992 HEAT:  450.0727
 CYCLE:     5 TIME:   0.112 TIME LEFT:  2.00D  GRAD.:    14.199 HEAT:  450.0138
 TEST ON GRADIENT SATISFIED
                    HOWEVER, A COMPONENT OF GRADIENT IS LARGER THAN  1.00

 CYCLE:     6 TIME:   0.119 TIME LEFT:  2.00D  GRAD.:    13.089 HEAT:  449.9901
 TEST ON GRADIENT SATISFIED
                    HOWEVER, A COMPONENT OF GRADIENT IS LARGER THAN  1.00

 CYCLE:     7 TIME:   0.125 TIME LEFT:  2.00D  GRAD.:    11.738 HEAT:  449.9720
 TEST ON X SATISFIED
                    HOWEVER, A COMPONENT OF GRADIENT IS LARGER THAN  1.00

           THERE HAVE BEEN 3 ATTEMPTS TO REDUCE THE GRADIENT.
           DURING THESE ATTEMPTS THE ENERGY DROPPED BY LESS THAN 0.3 KCAL/MOLE
           FURTHER CALCULATION IS NOT JUSTIFIED AT THIS TIME.
           TO CONTINUE, START AGAIN WITH THE WORD "PRECISE"

 -------------------------------------------------------------------------------
PM7 BFGS CHARGE=0
 chassi-A2



     GRADIENT TEST NOT PASSED, BUT FURTHER WORK NOT JUSTIFIED 
     SCF FIELD WAS ACHIEVED                                   


                              PM7 CALCULATION
                                                       MOPAC2016 (Version: 16.035L)
                                                       Fri Apr 28 02:44:54 2017
                                                       No. of days remaining = 474




          FINAL HEAT OF FORMATION =        449.95401 KCAL/MOL =    1882.60758 KJ/MOL


          TOTAL ENERGY            =      -5254.55197 EV
          ELECTRONIC ENERGY       =     -47551.52290 EV  POINT GROUP:     C1  
          CORE-CORE REPULSION     =      42296.97093 EV
          COSMO AREA              =        618.25 SQUARE ANGSTROMS
          COSMO VOLUME            =        675.40 CUBIC ANGSTROMS

          GRADIENT NORM           =         10.93100
          IONIZATION POTENTIAL    =          8.259683 EV
          HOMO LUMO ENERGIES (EV) =         -8.260 -1.042
          NO. OF FILLED LEVELS    =         93
          MOLECULAR WEIGHT        =        506.6454

          MOLECULAR DIMENSIONS (Angstroms)

            Atom       Atom       Distance
            H    52    H    57    23.11633
            H    59    H    49    13.93621
            H    54    H    58     3.18675


          SCF CALCULATIONS        =         19
 
          WALL-CLOCK TIME         =          1.310 SECONDS
          COMPUTATION TIME        =          1.240 SECONDS



       FINAL  POINT  AND  DERIVATIVES

   PARAMETER     ATOM    TYPE            VALUE       GRADIENT
      1          1  C    CARTESIAN X    -1.060165    -0.756793  KCAL/ANGSTROM
      2          1  C    CARTESIAN Y    -0.143756    -1.056444  KCAL/ANGSTROM
      3          1  C    CARTESIAN Z     0.002379     0.171737  KCAL/ANGSTROM
      4          2  C    CARTESIAN X    -0.456399    -1.404481  KCAL/ANGSTROM
      5          2  C    CARTESIAN Y     1.104392    -0.235832  KCAL/ANGSTROM
      6          2  C    CARTESIAN Z    -0.000526     0.002757  KCAL/ANGSTROM
      7          3  C    CARTESIAN X     0.934995    -2.305677  KCAL/ANGSTROM
      8          3  C    CARTESIAN Y     1.222408     1.196385  KCAL/ANGSTROM
      9          3  C    CARTESIAN Z    -0.141072     0.245741  KCAL/ANGSTROM
     10          4  C    CARTESIAN X     1.732192    -1.281365  KCAL/ANGSTROM
     11          4  C    CARTESIAN Y     0.060994    -1.030384  KCAL/ANGSTROM
     12          4  C    CARTESIAN Z    -0.244203     0.619197  KCAL/ANGSTROM
     13          5  C    CARTESIAN X     1.113790    -0.741310  KCAL/ANGSTROM
     14          5  C    CARTESIAN Y    -1.197713    -0.344128  KCAL/ANGSTROM
     15          5  C    CARTESIAN Z    -0.239445     0.585357  KCAL/ANGSTROM
     16          6  C    CARTESIAN X    -0.276307     0.550610  KCAL/ANGSTROM
     17          6  C    CARTESIAN Y    -1.301266    -0.863171  KCAL/ANGSTROM
     18          6  C    CARTESIAN Z    -0.137882    -0.096531  KCAL/ANGSTROM
     19          7  C    CARTESIAN X     3.132974     1.173937  KCAL/ANGSTROM
     20          7  C    CARTESIAN Y     0.159067    -0.084519  KCAL/ANGSTROM
     21          7  C    CARTESIAN Z    -0.382390    -0.405252  KCAL/ANGSTROM
     22          8  C    CARTESIAN X     4.338935     0.496004  KCAL/ANGSTROM
     23          8  C    CARTESIAN Y     0.254700     0.031650  KCAL/ANGSTROM
     24          8  C    CARTESIAN Z    -0.521386     0.079908  KCAL/ANGSTROM
     25          9  C    CARTESIAN X     5.728884    -0.084939  KCAL/ANGSTROM
     26          9  C    CARTESIAN Y     0.361962    -0.290129  KCAL/ANGSTROM
     27          9  C    CARTESIAN Z    -0.727423     0.274408  KCAL/ANGSTROM
     28         10  C    CARTESIAN X     6.329763    -1.559625  KCAL/ANGSTROM
     29         10  C    CARTESIAN Y     1.619149     0.167403  KCAL/ANGSTROM
     30         10  C    CARTESIAN Z    -0.827676     0.715003  KCAL/ANGSTROM
     31         11  C    CARTESIAN X     7.691599    -2.054867  KCAL/ANGSTROM
     32         11  C    CARTESIAN Y     1.735287    -1.657336  KCAL/ANGSTROM
     33         11  C    CARTESIAN Z    -1.134650     1.793814  KCAL/ANGSTROM
     34         12  C    CARTESIAN X     8.487331    -0.644286  KCAL/ANGSTROM
     35         12  C    CARTESIAN Y     0.583328     0.034722  KCAL/ANGSTROM
     36         12  C    CARTESIAN Z    -1.315044     0.077873  KCAL/ANGSTROM
     37         13  C    CARTESIAN X     7.896363     0.792271  KCAL/ANGSTROM
     38         13  C    CARTESIAN Y    -0.676760     0.707008  KCAL/ANGSTROM
     39         13  C    CARTESIAN Z    -1.161300    -0.322510  KCAL/ANGSTROM
     40         14  C    CARTESIAN X     6.531911     1.179412  KCAL/ANGSTROM
     41         14  C    CARTESIAN Y    -0.793484     0.840915  KCAL/ANGSTROM
     42         14  C    CARTESIAN Z    -0.882723     0.520488  KCAL/ANGSTROM
     43         15  C    CARTESIAN X     9.838787     3.096980  KCAL/ANGSTROM
     44         15  C    CARTESIAN Y     0.690250     0.217684  KCAL/ANGSTROM
     45         15  C    CARTESIAN Z    -1.703585     0.570903  KCAL/ANGSTROM
     46         16  C    CARTESIAN X    10.982530    -1.020924  KCAL/ANGSTROM
     47         16  C    CARTESIAN Y     0.788231    -0.434592  KCAL/ANGSTROM
     48         16  C    CARTESIAN Z    -2.107591     0.244654  KCAL/ANGSTROM
     49         17  C    CARTESIAN X    12.291578     0.635904  KCAL/ANGSTROM
     50         17  C    CARTESIAN Y     0.895749     0.896424  KCAL/ANGSTROM
     51         17  C    CARTESIAN Z    -2.618346     0.348026  KCAL/ANGSTROM
     52         18  C    CARTESIAN X    12.841880     0.932096  KCAL/ANGSTROM
     53         18  C    CARTESIAN Y     2.154476    -0.019471  KCAL/ANGSTROM
     54         18  C    CARTESIAN Z    -2.887984    -0.042511  KCAL/ANGSTROM
     55         19  C    CARTESIAN X    14.114565     0.782835  KCAL/ANGSTROM
     56         19  C    CARTESIAN Y     2.259714    -1.208161  KCAL/ANGSTROM
     57         19  C    CARTESIAN Z    -3.457217    -0.582585  KCAL/ANGSTROM
     58         20  C    CARTESIAN X    14.868191    -1.439477  KCAL/ANGSTROM
     59         20  C    CARTESIAN Y     1.107213     1.166094  KCAL/ANGSTROM
     60         20  C    CARTESIAN Z    -3.718620     0.601736  KCAL/ANGSTROM
     61         21  C    CARTESIAN X    14.336370     1.470668  KCAL/ANGSTROM
     62         21  C    CARTESIAN Y    -0.143371     1.283128  KCAL/ANGSTROM
     63         21  C    CARTESIAN Z    -3.446343    -1.023192  KCAL/ANGSTROM
     64         22  C    CARTESIAN X    13.045446     3.163530  KCAL/ANGSTROM
     65         22  C    CARTESIAN Y    -0.260575     1.747555  KCAL/ANGSTROM
     66         22  C    CARTESIAN Z    -2.913983    -0.852720  KCAL/ANGSTROM
     67         23  C    CARTESIAN X    12.495793     0.205862  KCAL/ANGSTROM
     68         23  C    CARTESIAN Y    -1.539517    -0.690619  KCAL/ANGSTROM
     69         23  C    CARTESIAN Z    -2.720654     0.329631  KCAL/ANGSTROM
     70         24  C    CARTESIAN X    14.654266    -0.406111  KCAL/ANGSTROM
     71         24  C    CARTESIAN Y     3.507441    -2.142206  KCAL/ANGSTROM
     72         24  C    CARTESIAN Z    -3.813621     0.374791  KCAL/ANGSTROM
     73         25  C    CARTESIAN X    12.006976    -0.585041  KCAL/ANGSTROM
     74         25  C    CARTESIAN Y    -2.642799    -0.546919  KCAL/ANGSTROM
     75         25  C    CARTESIAN Z    -2.591763    -0.245750  KCAL/ANGSTROM
     76         26  C    CARTESIAN X    11.430045    -1.123220  KCAL/ANGSTROM
     77         26  C    CARTESIAN Y    -3.939269     0.300467  KCAL/ANGSTROM
     78         26  C    CARTESIAN Z    -2.452809     0.183121  KCAL/ANGSTROM
     79         27  C    CARTESIAN X    15.146426     0.659990  KCAL/ANGSTROM
     80         27  C    CARTESIAN Y     4.557638    -0.713186  KCAL/ANGSTROM
     81         27  C    CARTESIAN Z    -4.171706    -0.247313  KCAL/ANGSTROM
     82         28  C    CARTESIAN X    15.722869    -0.613501  KCAL/ANGSTROM
     83         28  C    CARTESIAN Y     5.790313     0.180891  KCAL/ANGSTROM
     84         28  C    CARTESIAN Z    -4.602664    -1.081279  KCAL/ANGSTROM
     85         29  C    CARTESIAN X     5.935392    -0.312267  KCAL/ANGSTROM
     86         29  C    CARTESIAN Y    -2.063451    -1.145772  KCAL/ANGSTROM
     87         29  C    CARTESIAN Z    -0.799171     0.170252  KCAL/ANGSTROM
     88         30  C    CARTESIAN X     8.261234     1.563300  KCAL/ANGSTROM
     89         30  C    CARTESIAN Y     3.007375     1.979901  KCAL/ANGSTROM
     90         30  C    CARTESIAN Z    -1.323939    -1.196574  KCAL/ANGSTROM
     91         31  C    CARTESIAN X    -0.935408     0.015454  KCAL/ANGSTROM
     92         31  C    CARTESIAN Y    -2.542154     0.934048  KCAL/ANGSTROM
     93         31  C    CARTESIAN Z    -0.202587    -0.298157  KCAL/ANGSTROM
     94         32  C    CARTESIAN X    -1.561650    -1.557063  KCAL/ANGSTROM
     95         32  C    CARTESIAN Y    -3.578862     0.484454  KCAL/ANGSTROM
     96         32  C    CARTESIAN Z    -0.284644     0.248529  KCAL/ANGSTROM
     97         33  C    CARTESIAN X    -2.293111    -0.053224  KCAL/ANGSTROM
     98         33  C    CARTESIAN Y    -4.799363     0.090500  KCAL/ANGSTROM
     99         33  C    CARTESIAN Z    -0.394978     0.042945  KCAL/ANGSTROM
    100         34  C    CARTESIAN X     1.506072    -0.505620  KCAL/ANGSTROM
    101         34  C    CARTESIAN Y     2.504937    -1.129103  KCAL/ANGSTROM
    102         34  C    CARTESIAN Z    -0.207926     0.142069  KCAL/ANGSTROM
    103         35  C    CARTESIAN X     1.978227     0.414075  KCAL/ANGSTROM
    104         35  C    CARTESIAN Y     3.620362     1.583400  KCAL/ANGSTROM
    105         35  C    CARTESIAN Z    -0.297564    -0.499334  KCAL/ANGSTROM
    106         36  C    CARTESIAN X     2.534251    -0.569023  KCAL/ANGSTROM
    107         36  C    CARTESIAN Y     4.929083     0.267126  KCAL/ANGSTROM
    108         36  C    CARTESIAN Z    -0.417460     0.087054  KCAL/ANGSTROM
    109         37  C    CARTESIAN X     5.379540     0.880704  KCAL/ANGSTROM
    110         37  C    CARTESIAN Y    -3.140671     1.298848  KCAL/ANGSTROM
    111         37  C    CARTESIAN Z    -0.749949    -0.263930  KCAL/ANGSTROM
    112         38  C    CARTESIAN X     4.709315    -0.573401  KCAL/ANGSTROM
    113         38  C    CARTESIAN Y    -4.399316     0.004848  KCAL/ANGSTROM
    114         38  C    CARTESIAN Z    -0.703132     0.383473  KCAL/ANGSTROM
    115         39  C    CARTESIAN X     8.769506    -0.467175  KCAL/ANGSTROM
    116         39  C    CARTESIAN Y     4.090089    -1.797744  KCAL/ANGSTROM
    117         39  C    CARTESIAN Z    -1.526308     0.788214  KCAL/ANGSTROM
    118         40  C    CARTESIAN X     9.374931    -0.137475  KCAL/ANGSTROM
    119         40  C    CARTESIAN Y     5.355894     0.088917  KCAL/ANGSTROM
    120         40  C    CARTESIAN Z    -1.784493    -0.243964  KCAL/ANGSTROM
    121         41  H    CARTESIAN X    -2.141841    -0.760383  KCAL/ANGSTROM
    122         41  H    CARTESIAN Y    -0.231855     0.168019  KCAL/ANGSTROM
    123         41  H    CARTESIAN Z     0.102617     0.114567  KCAL/ANGSTROM
    124         42  H    CARTESIAN X    -1.059897     0.158492  KCAL/ANGSTROM
    125         42  H    CARTESIAN Y     2.005785    -0.234714  KCAL/ANGSTROM
    126         42  H    CARTESIAN Z     0.096105    -0.093433  KCAL/ANGSTROM
    127         43  H    CARTESIAN X     1.719882    -0.142342  KCAL/ANGSTROM
    128         43  H    CARTESIAN Y    -2.098730    -0.332004  KCAL/ANGSTROM
    129         43  H    CARTESIAN Z    -0.330804    -0.075097  KCAL/ANGSTROM
    130         44  H    CARTESIAN X     5.736475     1.002674  KCAL/ANGSTROM
    131         44  H    CARTESIAN Y     2.522722     0.272267  KCAL/ANGSTROM
    132         44  H    CARTESIAN Z    -0.690110    -0.031128  KCAL/ANGSTROM
    133         45  H    CARTESIAN X     8.500231     0.016463  KCAL/ANGSTROM
    134         45  H    CARTESIAN Y    -1.578188    -1.009067  KCAL/ANGSTROM
    135         45  H    CARTESIAN Z    -1.280189    -0.053327  KCAL/ANGSTROM
    136         46  H    CARTESIAN X    12.268888     0.822230  KCAL/ANGSTROM
    137         46  H    CARTESIAN Y     3.052566    -1.097100  KCAL/ANGSTROM
    138         46  H    CARTESIAN Z    -2.670126    -0.259074  KCAL/ANGSTROM
    139         47  H    CARTESIAN X    15.865314    -0.152626  KCAL/ANGSTROM
    140         47  H    CARTESIAN Y     1.200860     0.058528  KCAL/ANGSTROM
    141         47  H    CARTESIAN Z    -4.146058     0.033539  KCAL/ANGSTROM
    142         48  H    CARTESIAN X    14.909405    -0.730570  KCAL/ANGSTROM
    143         48  H    CARTESIAN Y    -1.044336     0.487118  KCAL/ANGSTROM
    144         48  H    CARTESIAN Z    -3.655790     0.164796  KCAL/ANGSTROM
    145         49  H    CARTESIAN X    12.085553     0.621303  KCAL/ANGSTROM
    146         49  H    CARTESIAN Y    -4.623618     0.047384  KCAL/ANGSTROM
    147         49  H    CARTESIAN Z    -1.881688    -0.190151  KCAL/ANGSTROM
    148         50  H    CARTESIAN X    11.253994     0.670453  KCAL/ANGSTROM
    149         50  H    CARTESIAN Y    -4.413717     0.260611  KCAL/ANGSTROM
    150         50  H    CARTESIAN Z    -3.437264    -0.387080  KCAL/ANGSTROM
    151         51  H    CARTESIAN X    10.458341     0.895436  KCAL/ANGSTROM
    152         51  H    CARTESIAN Y    -3.900086     0.756650  KCAL/ANGSTROM
    153         51  H    CARTESIAN Z    -1.928184    -0.418206  KCAL/ANGSTROM
    154         52  H    CARTESIAN X    16.774213     0.400369  KCAL/ANGSTROM
    155         52  H    CARTESIAN Y     5.891495    -0.037207  KCAL/ANGSTROM
    156         52  H    CARTESIAN Z    -4.270012     0.138059  KCAL/ANGSTROM
    157         53  H    CARTESIAN X    15.176936     0.090163  KCAL/ANGSTROM
    158         53  H    CARTESIAN Y     6.667223     0.207064  KCAL/ANGSTROM
    159         53  H    CARTESIAN Z    -4.207961     0.278171  KCAL/ANGSTROM
    160         54  H    CARTESIAN X    15.727319     0.187427  KCAL/ANGSTROM
    161         54  H    CARTESIAN Y     5.878775    -0.169481  KCAL/ANGSTROM
    162         54  H    CARTESIAN Z    -5.705541    -0.068841  KCAL/ANGSTROM
    163         55  H    CARTESIAN X    -1.793380    -0.136697  KCAL/ANGSTROM
    164         55  H    CARTESIAN Y    -5.635123    -0.107520  KCAL/ANGSTROM
    165         55  H    CARTESIAN Z     0.128670    -0.102527  KCAL/ANGSTROM
    166         56  H    CARTESIAN X    -2.416811    -0.112379  KCAL/ANGSTROM
    167         56  H    CARTESIAN Y    -5.109523     0.094384  KCAL/ANGSTROM
    168         56  H    CARTESIAN Z    -1.450248    -0.065338  KCAL/ANGSTROM
    169         57  H    CARTESIAN X    -3.309949    -0.116484  KCAL/ANGSTROM
    170         57  H    CARTESIAN Y    -4.714353    -0.199952  KCAL/ANGSTROM
    171         57  H    CARTESIAN Z     0.032006    -0.252554  KCAL/ANGSTROM
    172         58  H    CARTESIAN X     3.524583    -0.348136  KCAL/ANGSTROM
    173         58  H    CARTESIAN Y     5.004505     0.151019  KCAL/ANGSTROM
    174         58  H    CARTESIAN Z     0.069662    -0.073885  KCAL/ANGSTROM
    175         59  H    CARTESIAN X     1.893058     0.397795  KCAL/ANGSTROM
    176         59  H    CARTESIAN Y     5.704006     0.616671  KCAL/ANGSTROM
    177         59  H    CARTESIAN Z     0.041058    -0.059167  KCAL/ANGSTROM
    178         60  H    CARTESIAN X     2.673719    -0.294872  KCAL/ANGSTROM
    179         60  H    CARTESIAN Y     5.213662    -0.387386  KCAL/ANGSTROM
    180         60  H    CARTESIAN Z    -1.478078     0.081052  KCAL/ANGSTROM
    181         61  H    CARTESIAN X     5.282397     0.102468  KCAL/ANGSTROM
    182         61  H    CARTESIAN Y    -5.155457     0.222682  KCAL/ANGSTROM
    183         61  H    CARTESIAN Z    -0.136511     0.019276  KCAL/ANGSTROM
    184         62  H    CARTESIAN X     4.543266     0.146377  KCAL/ANGSTROM
    185         62  H    CARTESIAN Y    -4.809478     0.425768  KCAL/ANGSTROM
    186         62  H    CARTESIAN Z    -1.717843    -0.391268  KCAL/ANGSTROM
    187         63  H    CARTESIAN X     3.715536     0.070074  KCAL/ANGSTROM
    188         63  H    CARTESIAN Y    -4.319970    -0.057520  KCAL/ANGSTROM
    189         63  H    CARTESIAN Z    -0.222931    -0.212813  KCAL/ANGSTROM
    190         64  H    CARTESIAN X    10.400023    -0.353206  KCAL/ANGSTROM
    191         64  H    CARTESIAN Y     5.409093    -0.397980  KCAL/ANGSTROM
    192         64  H    CARTESIAN Z    -1.370884     0.188311  KCAL/ANGSTROM
    193         65  H    CARTESIAN X     8.805664     0.089051  KCAL/ANGSTROM
    194         65  H    CARTESIAN Y     6.193416     0.293105  KCAL/ANGSTROM
    195         65  H    CARTESIAN Z    -1.342190     0.037110  KCAL/ANGSTROM
    196         66  H    CARTESIAN X     9.451928    -0.339889  KCAL/ANGSTROM
    197         66  H    CARTESIAN Y     5.556469    -0.144022  KCAL/ANGSTROM
    198         66  H    CARTESIAN Z    -2.871169    -0.521075  KCAL/ANGSTROM




   ATOM   CHEMICAL          X               Y               Z
  NUMBER   SYMBOL      (ANGSTROMS)     (ANGSTROMS)     (ANGSTROMS)
 
     1       C         -1.06016483  *  -0.14375577  *   0.00237899  *
     2       C         -0.45639872  *   1.10439220  *  -0.00052610  *
     3       C          0.93499535  *   1.22240768  *  -0.14107244  *
     4       C          1.73219152  *   0.06099352  *  -0.24420305  *
     5       C          1.11379027  *  -1.19771267  *  -0.23944460  *
     6       C         -0.27630698  *  -1.30126601  *  -0.13788169  *
     7       C          3.13297352  *   0.15906656  *  -0.38239012  *
     8       C          4.33893468  *   0.25470019  *  -0.52138649  *
     9       C          5.72888408  *   0.36196155  *  -0.72742344  *
    10       C          6.32976334  *   1.61914937  *  -0.82767613  *
    11       C          7.69159922  *   1.73528673  *  -1.13464967  *
    12       C          8.48733068  *   0.58332784  *  -1.31504378  *
    13       C          7.89636297  *  -0.67675993  *  -1.16130004  *
    14       C          6.53191141  *  -0.79348354  *  -0.88272321  *
    15       C          9.83878693  *   0.69025049  *  -1.70358463  *
    16       C         10.98252960  *   0.78823145  *  -2.10759140  *
    17       C         12.29157829  *   0.89574926  *  -2.61834580  *
    18       C         12.84187969  *   2.15447576  *  -2.88798407  *
    19       C         14.11456496  *   2.25971384  *  -3.45721661  *
    20       C         14.86819066  *   1.10721310  *  -3.71862037  *
    21       C         14.33636987  *  -0.14337136  *  -3.44634251  *
    22       C         13.04544592  *  -0.26057506  *  -2.91398251  *
    23       C         12.49579277  *  -1.53951724  *  -2.72065383  *
    24       C         14.65426576  *   3.50744113  *  -3.81362107  *
    25       C         12.00697624  *  -2.64279900  *  -2.59176260  *
    26       C         11.43004504  *  -3.93926894  *  -2.45280864  *
    27       C         15.14642564  *   4.55763840  *  -4.17170560  *
    28       C         15.72286933  *   5.79031273  *  -4.60266427  *
    29       C          5.93539248  *  -2.06345073  *  -0.79917119  *
    30       C          8.26123368  *   3.00737485  *  -1.32393919  *
    31       C         -0.93540803  *  -2.54215382  *  -0.20258677  *
    32       C         -1.56164988  *  -3.57886170  *  -0.28464420  *
    33       C         -2.29311116  *  -4.79936253  *  -0.39497804  *
    34       C          1.50607249  *   2.50493657  *  -0.20792553  *
    35       C          1.97822685  *   3.62036247  *  -0.29756423  *
    36       C          2.53425064  *   4.92908340  *  -0.41746004  *
    37       C          5.37953956  *  -3.14067069  *  -0.74994868  *
    38       C          4.70931505  *  -4.39931605  *  -0.70313211  *
    39       C          8.76950640  *   4.09008863  *  -1.52630791  *
    40       C          9.37493146  *   5.35589441  *  -1.78449348  *
    41       H         -2.14184148  *  -0.23185521  *   0.10261651  *
    42       H         -1.05989719  *   2.00578515  *   0.09610521  *
    43       H          1.71988167  *  -2.09873042  *  -0.33080384  *
    44       H          5.73647539  *   2.52272249  *  -0.69011036  *
    45       H          8.50023143  *  -1.57818763  *  -1.28018906  *
    46       H         12.26888810  *   3.05256554  *  -2.67012601  *
    47       H         15.86531407  *   1.20086029  *  -4.14605789  *
    48       H         14.90940535  *  -1.04433567  *  -3.65578977  *
    49       H         12.08555343  *  -4.62361823  *  -1.88168834  *
    50       H         11.25399365  *  -4.41371680  *  -3.43726382  *
    51       H         10.45834140  *  -3.90008644  *  -1.92818436  *
    52       H         16.77421258  *   5.89149531  *  -4.27001173  *
    53       H         15.17693583  *   6.66722269  *  -4.20796106  *
    54       H         15.72731909  *   5.87877521  *  -5.70554139  *
    55       H         -1.79337984  *  -5.63512313  *   0.12867016  *
    56       H         -2.41681111  *  -5.10952290  *  -1.45024785  *
    57       H         -3.30994948  *  -4.71435294  *   0.03200637  *
    58       H          3.52458288  *   5.00450482  *   0.06966185  *
    59       H          1.89305840  *   5.70400624  *   0.04105794  *
    60       H          2.67371890  *   5.21366184  *  -1.47807789  *
    61       H          5.28239695  *  -5.15545734  *  -0.13651069  *
    62       H          4.54326609  *  -4.80947829  *  -1.71784300  *
    63       H          3.71553621  *  -4.31997034  *  -0.22293065  *
    64       H         10.40002344  *   5.40909275  *  -1.37088427  *
    65       H          8.80566361  *   6.19341564  *  -1.34218994  *
    66       H          9.45192788  *   5.55646946  *  -2.87116887  *

                             CARTESIAN COORDINATES

   1    C       -1.060164832    -0.143755769     0.002378991
   2    C       -0.456398718     1.104392197    -0.000526099
   3    C        0.934995348     1.222407678    -0.141072440
   4    C        1.732191518     0.060993521    -0.244203050
   5    C        1.113790274    -1.197712671    -0.239444595
   6    C       -0.276306984    -1.301266011    -0.137881688
   7    C        3.132973515     0.159066556    -0.382390120
   8    C        4.338934679     0.254700188    -0.521386489
   9    C        5.728884084     0.361961545    -0.727423439
  10    C        6.329763338     1.619149367    -0.827676134
  11    C        7.691599217     1.735286732    -1.134649670
  12    C        8.487330678     0.583327841    -1.315043776
  13    C        7.896362966    -0.676759929    -1.161300041
  14    C        6.531911408    -0.793483542    -0.882723214
  15    C        9.838786934     0.690250489    -1.703584632
  16    C       10.982529601     0.788231450    -2.107591400
  17    C       12.291578287     0.895749261    -2.618345802
  18    C       12.841879687     2.154475763    -2.887984068
  19    C       14.114564956     2.259713840    -3.457216609
  20    C       14.868190658     1.107213100    -3.718620369
  21    C       14.336369870    -0.143371364    -3.446342512
  22    C       13.045445925    -0.260575064    -2.913982509
  23    C       12.495792772    -1.539517239    -2.720653835
  24    C       14.654265763     3.507441134    -3.813621072
  25    C       12.006976242    -2.642799005    -2.591762596
  26    C       11.430045043    -3.939268937    -2.452808637
  27    C       15.146425642     4.557638396    -4.171705604
  28    C       15.722869326     5.790312727    -4.602664271
  29    C        5.935392482    -2.063450735    -0.799171192
  30    C        8.261233684     3.007374851    -1.323939190
  31    C       -0.935408026    -2.542153824    -0.202586772
  32    C       -1.561649879    -3.578861705    -0.284644204
  33    C       -2.293111162    -4.799362527    -0.394978039
  34    C        1.506072492     2.504936574    -0.207925528
  35    C        1.978226853     3.620362470    -0.297564229
  36    C        2.534250639     4.929083404    -0.417460041
  37    C        5.379539562    -3.140670688    -0.749948678
  38    C        4.709315049    -4.399316048    -0.703132109
  39    C        8.769506403     4.090088627    -1.526307910
  40    C        9.374931457     5.355894408    -1.784493483
  41    H       -2.141841482    -0.231855207     0.102616513
  42    H       -1.059897191     2.005785146     0.096105209
  43    H        1.719881667    -2.098730424    -0.330803842
  44    H        5.736475391     2.522722488    -0.690110361
  45    H        8.500231430    -1.578187627    -1.280189064
  46    H       12.268888102     3.052565540    -2.670126014
  47    H       15.865314074     1.200860289    -4.146057886
  48    H       14.909405351    -1.044335674    -3.655789774
  49    H       12.085553428    -4.623618226    -1.881688338
  50    H       11.253993648    -4.413716796    -3.437263818
  51    H       10.458341399    -3.900086441    -1.928184360
  52    H       16.774212581     5.891495310    -4.270011726
  53    H       15.176935827     6.667222689    -4.207961056
  54    H       15.727319092     5.878775213    -5.705541388
  55    H       -1.793379837    -5.635123129     0.128670160
  56    H       -2.416811109    -5.109522896    -1.450247850
  57    H       -3.309949475    -4.714352937     0.032006369
  58    H        3.524582880     5.004504824     0.069661850
  59    H        1.893058403     5.704006238     0.041057941
  60    H        2.673718904     5.213661839    -1.478077888
  61    H        5.282396953    -5.155457336    -0.136510694
  62    H        4.543266089    -4.809478293    -1.717843003
  63    H        3.715536211    -4.319970335    -0.222930653
  64    H       10.400023439     5.409092754    -1.370884271
  65    H        8.805663612     6.193415644    -1.342189945
  66    H        9.451927883     5.556469461    -2.871168869


           Empirical Formula: C40 H26  =    66 atoms



      MOLECULAR POINT GROUP   :   C1  


                  EIGENVALUES  
 -30.98036 -30.87511 -30.82757 -28.17708 -27.92704 -27.89615 -27.40788 -27.39409
 -27.36350 -27.36187 -27.18573 -27.06814 -26.82942 -26.78064 -26.61125 -25.63464
 -25.10731 -25.10414 -25.08704 -24.66217 -23.79802 -23.79293 -23.69086 -22.48105
 -21.55222 -21.54203 -21.42337 -21.40190 -20.98914 -19.32021 -19.03111 -18.38241
 -17.57651 -17.32192 -17.29204 -16.41898 -16.37270 -16.07631 -15.97798 -15.80768
 -15.56614 -15.54718 -15.44846 -15.34548 -15.03492 -15.00228 -14.97190 -14.89035
 -14.87040 -14.86594 -14.84995 -14.84451 -14.81637 -14.80489 -14.70668 -14.68994
 -14.68385 -14.67816 -14.51862 -14.40632 -14.40334 -14.37901 -14.34655 -14.11040
 -13.91568 -13.20793 -12.81238 -12.80432 -12.71132 -12.67082 -12.47433 -12.40487
 -12.14051 -11.99398 -11.74397 -11.59866 -10.68132 -10.60961 -10.57145 -10.56280
 -10.51475 -10.50124 -10.43745 -10.42729 -10.41866 -10.39966 -10.39514 -10.18370
  -9.45635  -9.16559  -8.86334  -8.71408  -8.25968  -1.04192  -0.55916  -0.40497
  -0.23013  -0.07526   0.32383   1.10563   1.31143   1.38604   1.45646   1.46105
   1.53047   1.53631   1.60085   1.61351   1.61466   1.63123   2.06969   2.17243
   2.29803   2.31320   2.51072   2.93002   3.11030   3.25994   3.69998   3.81670
   3.87665   3.97979   3.99570   4.14438   4.14607   4.21933   4.31528   4.45028
   4.46527   4.50779   4.57356   4.67835   4.77580   4.80808   4.83499   4.92939
   4.97523   4.99148   5.00581   5.05670   5.08653   5.12170   5.13170   5.18695
   5.23014   5.23307   5.24459   5.24938   5.27895   5.32472   5.32699   5.32829
   5.33470   5.33634   5.33939   5.34602   5.35500   5.36886   5.39257   5.48803
   5.58499   5.71141   5.78749   5.79918   5.99808   6.01266   6.06684   6.15210
   6.15910   6.19417   6.20806   6.21138   6.22999   6.24005   6.30037   6.30476
   6.31739   6.32733   6.82070   6.83069   6.89841   6.90182   6.99242   6.99518
   7.00014   7.00230


              NET ATOMIC CHARGES AND DIPOLE CONTRIBUTIONS

  ATOM NO.   TYPE          CHARGE      No. of ELECS.   s-Pop       p-Pop       
    1          C          -0.135122        4.1351     1.08531     3.04981
    2          C          -0.149888        4.1499     1.08335     3.06654
    3          C           0.058518        3.9415     1.04319     2.89829
    4          C           0.030620        3.9694     1.04168     2.92770
    5          C          -0.128962        4.1290     1.08543     3.04353
    6          C           0.037695        3.9623     1.03961     2.92269
    7          C          -0.066176        4.0662     1.08887     2.97731
    8          C          -0.068041        4.0680     1.08720     2.98084
    9          C           0.042163        3.9578     1.04120     2.91663
   10          C          -0.136611        4.1366     1.08520     3.05141
   11          C           0.052948        3.9471     1.04155     2.90550
   12          C           0.042179        3.9578     1.04121     2.91661
   13          C          -0.137088        4.1371     1.08520     3.05189
   14          C           0.053251        3.9467     1.04138     2.90537
   15          C          -0.068123        4.0681     1.08734     2.98079
   16          C          -0.065785        4.0658     1.08825     2.97753
   17          C           0.029693        3.9703     1.04091     2.92940
   18          C          -0.128422        4.1284     1.08502     3.04340
   19          C           0.037065        3.9629     1.03889     2.92405
   20          C          -0.135057        4.1351     1.08417     3.05089
   21          C          -0.149187        4.1492     1.08261     3.06657
   22          C           0.058216        3.9418     1.04285     2.89894
   23          C          -0.145160        4.1452     1.08132     3.06384
   24          C          -0.140657        4.1407     1.08425     3.05640
   25          C          -0.018799        4.0188     1.09478     2.92402
   26          C          -0.404987        4.4050     1.03302     3.37196
   27          C          -0.034187        4.0342     1.09446     2.93973
   28          C          -0.406941        4.4069     1.03309     3.37385
   29          C          -0.140717        4.1407     1.08052     3.06020
   30          C          -0.140284        4.1403     1.08075     3.05953
   31          C          -0.140943        4.1409     1.08451     3.05643
   32          C          -0.033764        4.0338     1.09445     2.93932
   33          C          -0.407109        4.4071     1.03281     3.37430
   34          C          -0.144719        4.1447     1.08133     3.06338
   35          C          -0.018308        4.0183     1.09514     2.92317
   36          C          -0.405187        4.4052     1.03290     3.37229
   37          C          -0.021115        4.0211     1.09447     2.92664
   38          C          -0.406925        4.4069     1.03310     3.37382
   39          C          -0.021467        4.0215     1.09436     2.92710
   40          C          -0.407484        4.4075     1.03321     3.37428
   41          H           0.158347        0.8417     0.84165
   42          H           0.160531        0.8395     0.83947
   43          H           0.165823        0.8342     0.83418
   44          H           0.168962        0.8310     0.83104
   45          H           0.168526        0.8315     0.83147
   46          H           0.166220        0.8338     0.83378
   47          H           0.158398        0.8416     0.84160
   48          H           0.160762        0.8392     0.83924
   49          H           0.168045        0.8320     0.83195
   50          H           0.169843        0.8302     0.83016
   51          H           0.173256        0.8267     0.82674
   52          H           0.169720        0.8303     0.83028
   53          H           0.168324        0.8317     0.83168
   54          H           0.170343        0.8297     0.82966
   55          H           0.168778        0.8312     0.83122
   56          H           0.170260        0.8297     0.82974
   57          H           0.169436        0.8306     0.83056
   58          H           0.172818        0.8272     0.82718
   59          H           0.166435        0.8336     0.83357
   60          H           0.171643        0.8284     0.82836
   61          H           0.166263        0.8337     0.83374
   62          H           0.169606        0.8304     0.83039
   63          H           0.173087        0.8269     0.82691
   64          H           0.172786        0.8272     0.82721
   65          H           0.164824        0.8352     0.83518
   66          H           0.171829        0.8282     0.82817
 DIPOLE           X         Y         Z       TOTAL
 POINT-CHG.    -0.374     0.046    -1.310     1.363
 HYBRID         0.013     0.003     0.044     0.046
 SUM           -0.362     0.049    -1.266     1.317


          ATOMIC ORBITAL ELECTRON POPULATIONS

     Atom    s        px        py        pz   
    1  C   1.08531   1.08087   0.97592   0.99302
    2  C   1.08335   1.00625   1.05280   1.00749
    3  C   1.04319   0.96994   0.94130   0.98706
    4  C   1.04168   0.93986   0.97293   1.01491
    5  C   1.08543   1.00281   1.04645   0.99427
    6  C   1.03961   0.97171   0.94671   1.00428
    7  C   1.08887   0.96705   1.00828   1.00198
    8  C   1.08720   0.96741   1.00812   1.00531
    9  C   1.04120   0.93910   0.97248   1.00505
   10  C   1.08520   1.00316   1.04913   0.99912
   11  C   1.04155   0.96862   0.94229   0.99459
   12  C   1.04121   0.94204   0.97254   1.00204
   13  C   1.08520   1.00360   1.04856   0.99973
   14  C   1.04138   0.96829   0.94206   0.99503
   15  C   1.08734   0.96927   1.00826   1.00325
   16  C   1.08825   0.97328   1.00817   0.99608
   17  C   1.04091   0.95031   0.97377   1.00532
   18  C   1.08502   1.00334   1.04700   0.99306
   19  C   1.03889   0.97917   0.94688   0.99799
   20  C   1.08417   1.06791   0.97640   1.00658
   21  C   1.08261   1.00851   1.05244   1.00562
   22  C   1.04285   0.97239   0.94182   0.98473
   23  C   1.08132   1.03119   0.98386   1.04879
   24  C   1.08425   1.02982   0.98767   1.03892
   25  C   1.09478   0.98343   0.96783   0.97276
   26  C   1.03302   1.15474   1.03709   1.18013
   27  C   1.09446   0.98604   0.97351   0.98018
   28  C   1.03309   1.15430   1.05357   1.16598
   29  C   1.08052   1.02844   0.98303   1.04873
   30  C   1.08075   1.02936   0.98275   1.04743
   31  C   1.08451   1.02325   0.98875   1.04443
   32  C   1.09445   0.98337   0.97444   0.98150
   33  C   1.03281   1.13691   1.05617   1.18122
   34  C   1.08133   1.02944   0.98262   1.05133
   35  C   1.09514   0.98749   0.96637   0.96931
   36  C   1.03290   1.15752   1.03392   1.18084
   37  C   1.09447   0.98238   0.97079   0.97347
   38  C   1.03310   1.14509   1.04799   1.18074
   39  C   1.09436   0.98462   0.97018   0.97230
   40  C   1.03321   1.15253   1.04551   1.17624
   41  H   0.84165
   42  H   0.83947
   43  H   0.83418
   44  H   0.83104
   45  H   0.83147
   46  H   0.83378
   47  H   0.84160
   48  H   0.83924
   49  H   0.83195
   50  H   0.83016
   51  H   0.82674
   52  H   0.83028
   53  H   0.83168
   54  H   0.82966
   55  H   0.83122
   56  H   0.82974
   57  H   0.83056
   58  H   0.82718
   59  H   0.83357
   60  H   0.82836
   61  H   0.83374
   62  H   0.83039
   63  H   0.82691
   64  H   0.82721
   65  H   0.83518
   66  H   0.82817

 **********************
 *                    *
 * JOB ENDED NORMALLY *
 *                    *
 **********************



 TOTAL JOB TIME:             1.38 SECONDS

 == MOPAC DONE ==
