 *******************************************************************************
 ** Site#: 9602  E-mail support: MrMOPAC@OpenMOPAC.net  Version 16.035L 64BITS**
 *******************************************************************************
 ** Cite this program as: MOPAC2016, Version: 16.035L, James J. P. Stewart,   **
 ** Stewart Computational Chemistry, web-site: HTTP://OpenMOPAC.net.          **
 *******************************************************************************
 **                                                                           **
 **                                MOPAC2016                                  **
 **                                                                           **
 *******************************************************************************

                              PM7 CALCULATION RESULTS


 *******************************************************************************
 *  CALCULATION DONE:                                Fri Apr 28 02:52:38 2017  *
 *  PM7        - The PM7 Hamiltonian to be used
 *
 *
 *
 *                 CHARGE ON SYSTEM = 0
 *
 *
 *
 *  BFGS       - USE THE BFGS GEOMETRY OPTIMIZER
 *  T=         - A TIME OF 172800.0 SECONDS REQUESTED
 *  DUMP=N     - RESTART FILE WRITTEN EVERY  7200.000 SECONDS
 *******************************************************************************
PM7 BFGS CHARGE=0
 chassi-I1-hand1.xyz

   ATOM   CHEMICAL          X               Y               Z
  NUMBER   SYMBOL      (ANGSTROMS)     (ANGSTROMS)     (ANGSTROMS)
 
     1       C         -0.78345000  *   1.24933000  *  -0.81848000  *
     2       C         -1.39541000  *  -0.03950000  *  -0.77213000  *
     3       C         -0.66325000  *  -1.21787000  *  -0.53030000  *
     4       C          0.71103000  *  -1.04016000  *  -0.27242000  *
     5       C          1.32159000  *   0.25057000  *  -0.30073000  *
     6       C          0.61071000  *   1.45667000  *  -0.62522000  *
     7       C         -1.28219000  *  -2.59060000  *  -0.65704000  *
     8       N          1.29844000  *   2.80447000  *  -0.72483000  *
     9       C         -1.75715000  *  -3.74125000  *  -0.75353000  *
    10       C         -2.35889000  *  -5.08846000  *  -0.87987000  *
    11       C         -2.90046000  *  -6.20714000  *  -0.99784000  *
    12       C         -3.48216000  *  -7.59550000  *  -1.12366000  *
    13       C         -2.65556000  *  -8.72101000  *  -0.97491000  *
    14       C         -3.11211000  * -10.04439000  *  -1.22755000  *
    15       C         -4.43908000  * -10.34681000  *  -1.64637000  *
    16       C         -5.28279000  *  -9.19334000  *  -1.74752000  *
    17       C         -4.81747000  *  -7.86106000  *  -1.50675000  *
    18       N         -4.92920000  * -11.74491000  *  -1.95242000  *
    19       C         -5.94301000  * -12.09414000  *  -2.84061000  *
    20       C         -6.17109000  * -13.46653000  *  -2.88676000  *
    21       C         -5.25378000  * -14.04535000  *  -1.99527000  *
    22       C         -4.48087000  * -12.98470000  *  -1.48529000  *
    23       C          0.80594000  *   4.12243000  *  -0.56894000  *
    24       C          1.83028000  *   5.05168000  *  -0.63232000  *
    25       C          3.02274000  *   4.32576000  *  -0.95300000  *
    26       C          2.65447000  *   2.98903000  *  -1.01265000  *
    27       C         -0.52584000  *   4.62653000  *  -0.37042000  *
    28       C         -0.91530000  *   6.03123000  *  -0.15223000  *
    29       C          0.28554000  *   6.97057000  *   0.05768000  *
    30       C          1.55847000  *   6.42470000  *  -0.33384000  *
    31       C          4.39174000  *   4.67982000  *  -1.23543000  *
    32       C          5.41749000  *   3.76487000  *  -1.48675000  *
    33       C          5.01172000  *   2.40587000  *  -1.69691000  *
    34       C          3.63992000  *   2.03930000  *  -1.44603000  *
    35       C         -4.99238000  * -15.38870000  *  -1.58208000  *
    36       C         -3.97583000  * -15.67858000  *  -0.66568000  *
    37       C         -3.04370000  * -14.65513000  *  -0.30368000  *
    38       C         -3.36463000  * -13.30529000  *  -0.65212000  *
    39       C         -6.63814000  * -11.27705000  *  -3.76095000  *
    40       C         -7.63087000  * -11.81244000  *  -4.64848000  *
    41       C         -7.96362000  * -13.21105000  *  -4.58119000  *
    42       C         -7.14362000  * -14.00116000  *  -3.78427000  *
    43       C         -5.60976000  * -16.70142000  *  -1.99748000  *
    44       C         -4.50024000  * -17.68894000  *  -1.68979000  *
    45       C         -4.07451000  * -17.16173000  *  -0.35513000  *
    46       C         -8.88383000  * -14.12133000  *  -5.40890000  *
    47       C         -8.33443000  * -15.52298000  *  -5.26455000  *
    48       C         -7.34028000  * -15.41562000  *  -4.10954000  *
    49       C          0.77679000  *   8.37297000  *   0.70525000  *
    50       C          1.96927000  *   8.77094000  *  -0.09951000  *
    51       C          2.62372000  *   7.45377000  *  -0.24840000  *
    52       C          4.91438000  *   6.02465000  *  -1.40357000  *
    53       C          6.35620000  *   5.98097000  *  -1.86994000  *
    54       C          6.74601000  *   4.53300000  *  -1.71092000  *
    55       C          0.55855000  *   8.77938000  *   2.03153000  *
    56       C          8.09974000  *   4.20528000  *  -1.71911000  *
    57       C         -3.81717000  * -17.80450000  *   0.86503000  *
    58       C        -10.03189000  * -13.88922000  *  -6.14824000  *
    59       C          7.07588000  *   7.04531000  *  -0.97393000  *
    60       C          3.04909000  *   9.80864000  *   0.23792000  *
    61       C         -4.84611000  * -19.10023000  *  -2.13222000  *
    62       C         -9.32620000  * -16.64773000  *  -4.84342000  *
    63       C         -0.55029000  *   8.25505000  *   2.76921000  *
    64       C         -0.34401000  *   8.29140000  *   4.11635000  *
    65       C          0.82792000  *   9.10059000  *   4.36322000  *
    66       C          1.37999000  *   9.52358000  *   3.13511000  *
    67       C          9.25861000  *   5.05364000  *  -2.23244000  *
    68       C         10.45483000  *   4.41112000  *  -1.94872000  *
    69       C         10.16710000  *   3.15311000  *  -1.29963000  *
    70       C          8.79093000  *   3.01321000  *  -1.14062000  *
    71       C          1.29116000  *   9.51580000  *   5.61853000  *
    72       C          2.37243000  *  10.38805000  *   5.68705000  *
    73       C          2.97616000  *  10.83009000  *   4.50945000  *
    74       C          2.50018000  *  10.41172000  *   3.24510000  *
    75       C         -1.73979000  *   7.84230000  *   2.24167000  *
    76       C         -2.70224000  *   7.29840000  *   3.08154000  *
    77       C         -2.43872000  *   7.17550000  *   4.45545000  *
    78       C         -1.25355000  *   7.70685000  *   4.99718000  *
    79       C          9.31729000  *   6.26881000  *  -2.95772000  *
    80       C         10.55931000  *   6.84332000  *  -3.27015000  *
    81       C         11.74937000  *   6.20152000  *  -2.90912000  *
    82       C         11.70458000  *   4.96391000  *  -2.25986000  *
    83       C         11.07705000  *   2.20097000  *  -0.83915000  *
    84       C         10.58076000  *   1.08298000  *  -0.16354000  *
    85       C          9.20078000  *   0.95799000  *   0.07121000  *
    86       C          8.30341000  *   1.93321000  *  -0.39943000  *
    87       C        -10.67355000  * -14.78161000  *  -7.19456000  *
    88       C        -11.83773000  * -14.17539000  *  -7.64953000  *
    89       C        -12.01661000  * -12.91869000  *  -6.95833000  *
    90       C        -10.97903000  * -12.74169000  *  -6.05405000  *
    91       C         -3.40838000  * -17.11519000  *   2.13738000  *
    92       C         -2.83861000  * -18.03953000  *   2.99313000  *
    93       C         -3.02039000  * -19.35976000  *   2.44498000  *
    94       C         -3.68843000  * -19.27591000  *   1.22263000  *
    95       C         -2.65468000  * -20.57357000  *   3.03358000  *
    96       C         -2.98109000  * -21.76037000  *   2.37915000  *
    97       C         -3.68751000  * -21.71674000  *   1.17604000  *
    98       C         -4.04458000  * -20.48968000  *   0.60269000  *
    99       C         -3.50365000  * -15.77865000  *   2.55302000  *
   100       C         -2.91291000  * -15.38882000  *   3.76860000  *
   101       C         -2.26501000  * -16.33248000  *   4.58017000  *
   102       C         -2.24826000  * -17.67896000  *   4.20642000  *
   103       C        -10.26967000  * -15.99154000  *  -7.80407000  *
   104       C        -11.08734000  * -16.59036000  *  -8.77742000  *
   105       C        -12.28508000  * -15.98097000  *  -9.17465000  *
   106       C        -12.66265000  * -14.75482000  *  -8.61956000  *
   107       C        -13.05814000  * -11.99961000  *  -7.09005000  *
   108       C        -13.06606000  * -10.88141000  *  -6.24966000  *
   109       C        -12.06547000  * -10.72552000  *  -5.27535000  *
   110       C        -11.02884000  * -11.66694000  *  -5.16149000  *
   111       C         -9.30595000  *   7.32477000  *  -1.34805000  *
   112       C         -8.02166000  *   6.93747000  *  -0.53595000  *
   113       C         -6.53914000  *   7.48865000  *  -0.77943000  *
   114       C         -5.35267000  *   6.49669000  *  -0.32636000  *
   115       C         -3.83657000  *   7.00619000  *  -0.62207000  *
   116       C         -2.58521000  *   6.09345000  *  -0.06711000  *
   117       C          7.80384000  *  -4.69895000  *  -2.10092000  *
   118       C          8.09016000  *  -3.23032000  *  -2.41399000  *
   119       C          6.90103000  *  -2.35239000  *  -2.00429000  *
   120       C          7.08504000  *  -0.88224000  *  -2.40722000  *
   121       C          5.95782000  *  -0.01911000  *  -1.80268000  *
   122       C          5.94120000  *   1.40553000  *  -2.38861000  *
   123       C          1.09260000  * -20.36328000  *   2.23779000  *
   124       C          1.10928000  * -18.83470000  *   2.13862000  *
   125       C          0.24350000  * -18.32589000  *   0.97576000  *
   126       C          0.06212000  * -16.78247000  *   1.01319000  *
   127       C         -1.00797000  * -16.31728000  *   0.00369000  *
   128       C         -1.65483000  * -14.93129000  *   0.33436000  *
   129       C        -10.29489000  *  -5.01769000  *  -6.69780000  *
   130       C        -10.24005000  *  -6.49492000  *  -7.07743000  *
   131       C         -9.40529000  *  -7.27579000  *  -6.06187000  *
   132       C         -9.22577000  *  -8.73982000  *  -6.47383000  *
   133       C         -8.56114000  *  -9.51591000  *  -5.33221000  *
   134       C         -8.12193000  * -10.91905000  *  -5.77670000  *
   135       H         -1.44016000  *   2.04990000  *  -1.05966000  *
   136       H         -2.45366000  *  -0.11683000  *  -0.96931000  *
   137       H          1.33438000  *  -1.90707000  *  -0.07048000  *
   138       H          2.36907000  *   0.26678000  *  -0.05229000  *
   139       H         -1.62181000  *  -8.57506000  *  -0.68971000  *
   140       H         -2.36547000  * -10.79578000  *  -1.12983000  *
   141       H         -6.32449000  *  -9.29330000  *  -2.00775000  *
   142       H         -5.50788000  *  -7.03725000  *  -1.64362000  *
   143       H         -1.31309000  *   3.91689000  *  -0.36272000  *
   144       H          3.36126000  *   1.02977000  *  -1.66778000  *
   145       H         -2.69115000  * -12.56757000  *  -0.28662000  *
   146       H         -6.36202000  * -10.24904000  *  -3.86056000  *
   147       H         -5.69376000  * -16.86680000  *  -3.06027000  *
   148       H         -6.55127000  * -16.90839000  *  -1.43804000  *
   149       H         -3.63591000  * -17.44801000  *  -2.36417000  *
   150       H         -7.81763000  * -15.77770000  *  -6.21486000  *
   151       H         -6.39183000  * -15.78548000  *  -4.53847000  *
   152       H         -7.70808000  * -15.88563000  *  -3.17306000  *
   153       H          1.53428000  *   9.09990000  *  -1.07104000  *
   154       H          3.24003000  *   7.21675000  *   0.65163000  *
   155       H          3.15545000  *   7.61975000  *  -1.17476000  *
   156       H          4.85249000  *   6.42794000  *  -0.38229000  *
   157       H          4.36780000  *   6.50331000  *  -2.23769000  *
   158       H          6.42340000  *   6.22210000  *  -2.95208000  *
   159       H          6.97570000  *   6.79503000  *   0.10333000  *
   160       H          6.59920000  *   8.03650000  *  -1.15134000  *
   161       H          8.14788000  *   7.21094000  *  -1.11025000  *
   162       H          3.68774000  *   9.46073000  *   1.07947000  *
   163       H          2.60281000  *  10.81240000  *   0.38129000  *
   164       H          3.76492000  *   9.90751000  *  -0.61020000  *
   165       H         -3.94305000  * -19.74148000  *  -2.04618000  *
   166       H         -5.06775000  * -19.09699000  *  -3.22271000  *
   167       H         -5.75866000  * -19.47495000  *  -1.62760000  *
   168       H         -9.81444000  * -16.41287000  *  -3.87502000  *
   169       H         -8.75946000  * -17.60047000  *  -4.73081000  *
   170       H        -10.14754000  * -16.86643000  *  -5.53605000  *
   171       H          0.80620000  *   9.19395000  *   6.53101000  *
   172       H          2.73251000  *  10.73532000  *   6.65133000  *
   173       H          3.81751000  *  11.51397000  *   4.58531000  *
   174       H          3.04467000  *  10.85070000  *   2.44831000  *
   175       H         -1.89611000  *   8.00542000  *   1.19498000  *
   176       H         -3.64150000  *   6.97843000  *   2.66107000  *
   177       H         -3.17971000  *   6.72500000  *   5.09282000  *
   178       H         -1.07582000  *   7.69045000  *   6.06206000  *
   179       H          8.44566000  *   6.80725000  *  -3.27929000  *
   180       H         10.59905000  *   7.79184000  *  -3.79248000  *
   181       H         12.70238000  *   6.65796000  *  -3.14876000  *
   182       H         12.62590000  *   4.45837000  *  -2.00280000  *
   183       H         12.14304000  *   2.32505000  *  -0.98606000  *
   184       H         11.26698000  *   0.33102000  *   0.20403000  *
   185       H          8.82944000  *   0.10898000  *   0.62802000  *
   186       H          7.25722000  *   1.84941000  *  -0.17243000  *
   187       H         -2.13352000  * -20.60538000  *   3.98024000  *
   188       H         -2.70696000  * -22.71414000  *   2.80955000  *
   189       H         -3.96208000  * -22.63933000  *   0.67982000  *
   190       H         -4.59475000  * -20.57728000  *  -0.28299000  *
   191       H         -3.99560000  * -15.02912000  *   1.95919000  *
   192       H         -2.94505000  * -14.35171000  *   4.07637000  *
   193       H         -1.80000000  * -16.02432000  *   5.50784000  *
   194       H         -1.78762000  * -18.41736000  *   4.84893000  *
   195       H         -9.35148000  * -16.49442000  *  -7.56102000  *
   196       H        -10.79047000  * -17.52866000  *  -9.22997000  *
   197       H        -12.90957000  * -16.45196000  *  -9.92409000  *
   198       H        -13.57666000  * -14.27349000  *  -8.94148000  *
   199       H        -13.85005000  * -12.14868000  *  -7.81286000  *
   200       H        -13.86212000  * -10.15330000  *  -6.33222000  *
   201       H        -12.09804000  *  -9.87804000  *  -4.60456000  *
   202       H        -10.29104000  * -11.55994000  *  -4.38648000  *
   203       H        -10.17066000  *   6.83305000  *  -0.83972000  *
   204       H         -9.41124000  *   7.03856000  *  -2.41960000  *
   205       H         -9.57580000  *   8.39371000  *  -1.23778000  *
   206       H         -8.28819000  *   7.48579000  *   0.34145000  *
   207       H         -8.14535000  *   5.95580000  *  -0.02635000  *
   208       H         -6.44635000  *   7.65706000  *  -1.85316000  *
   209       H         -6.44764000  *   8.53012000  *  -0.31576000  *
   210       H         -5.49111000  *   6.34583000  *   0.75895000  *
   211       H         -5.54363000  *   5.48568000  *  -0.78070000  *
   212       H         -3.77745000  *   7.12702000  *  -1.73081000  *
   213       H         -3.82932000  *   8.00281000  *  -0.15890000  *
   214       H         -2.88194000  *   5.22863000  *  -0.69302000  *
   215       H         -2.86236000  *   5.76134000  *   0.94275000  *
   216       H          8.68414000  *  -5.32259000  *  -2.36283000  *
   217       H          6.93320000  *  -5.05089000  *  -2.69571000  *
   218       H          7.58029000  *  -4.83362000  *  -1.02093000  *
   219       H          8.99413000  *  -2.90623000  *  -1.85207000  *
   220       H          8.29296000  *  -3.13365000  *  -3.50227000  *
   221       H          5.97575000  *  -2.72597000  *  -2.49690000  *
   222       H          6.77704000  *  -2.43050000  *  -0.90250000  *
   223       H          8.06203000  *  -0.49915000  *  -2.04073000  *
   224       H          7.08576000  *  -0.82258000  *  -3.51824000  *
   225       H          4.97747000  *  -0.48861000  *  -2.02878000  *
   226       H          6.09148000  *  -0.00484000  *  -0.70208000  *
   227       H          5.59941000  *   1.30121000  *  -3.44119000  *
   228       H          6.95317000  *   1.82036000  *  -2.49367000  *
   229       H          1.71930000  * -20.68947000  *   3.09541000  *
   230       H          1.48033000  * -20.83094000  *   1.30972000  *
   231       H          0.05942000  * -20.72929000  *   2.41790000  *
   232       H          0.70643000  * -18.44255000  *   3.09834000  *
   233       H          2.15157000  * -18.47593000  *   2.01187000  *
   234       H          0.65493000  * -18.66194000  *  -0.00035000  *
   235       H         -0.75345000  * -18.79835000  *   1.09713000  *
   236       H         -0.32113000  * -16.54969000  *   2.02975000  *
   237       H          1.01858000  * -16.24169000  *   0.86140000  *
   238       H         -0.67758000  * -16.39490000  *  -1.05455000  *
   239       H         -1.74150000  * -17.07942000  *   0.09359000  *
   240       H         -0.92668000  * -14.19250000  *  -0.06316000  *
   241       H         -1.66981000  * -14.69733000  *   1.40773000  *
   242       H        -10.93917000  *  -4.46896000  *  -7.41530000  *
   243       H         -9.27333000  *  -4.58076000  *  -6.73107000  *
   244       H        -10.70864000  *  -4.89171000  *  -5.67434000  *
   245       H        -11.27176000  *  -6.91091000  *  -7.09157000  *
   246       H         -9.80226000  *  -6.58639000  *  -8.09458000  *
   247       H         -8.39372000  *  -6.81915000  *  -5.97167000  *
   248       H         -9.91242000  *  -7.21713000  *  -5.07385000  *
   249       H        -10.20687000  *  -9.21098000  *  -6.69751000  *
   250       H         -8.60260000  *  -8.77353000  *  -7.39493000  *
   251       H         -7.66062000  *  -8.95859000  *  -5.00227000  *
   252       H         -9.27001000  *  -9.56020000  *  -4.48074000  *
   253       H         -7.27265000  * -10.77198000  *  -6.47886000  *
   254       H         -8.87410000  * -11.42541000  *  -6.39378000  *
 


          CARTESIAN COORDINATES 

    NO.       ATOM         X         Y         Z

     1         C       -0.7834    1.2493   -0.8185
     2         C       -1.3954   -0.0395   -0.7721
     3         C       -0.6633   -1.2179   -0.5303
     4         C        0.7110   -1.0402   -0.2724
     5         C        1.3216    0.2506   -0.3007
     6         C        0.6107    1.4567   -0.6252
     7         C       -1.2822   -2.5906   -0.6570
     8         N        1.2984    2.8045   -0.7248
     9         C       -1.7572   -3.7412   -0.7535
    10         C       -2.3589   -5.0885   -0.8799
    11         C       -2.9005   -6.2071   -0.9978
    12         C       -3.4822   -7.5955   -1.1237
    13         C       -2.6556   -8.7210   -0.9749
    14         C       -3.1121  -10.0444   -1.2275
    15         C       -4.4391  -10.3468   -1.6464
    16         C       -5.2828   -9.1933   -1.7475
    17         C       -4.8175   -7.8611   -1.5068
    18         N       -4.9292  -11.7449   -1.9524
    19         C       -5.9430  -12.0941   -2.8406
    20         C       -6.1711  -13.4665   -2.8868
    21         C       -5.2538  -14.0453   -1.9953
    22         C       -4.4809  -12.9847   -1.4853
    23         C        0.8059    4.1224   -0.5689
    24         C        1.8303    5.0517   -0.6323
    25         C        3.0227    4.3258   -0.9530
    26         C        2.6545    2.9890   -1.0127
    27         C       -0.5258    4.6265   -0.3704
    28         C       -0.9153    6.0312   -0.1522
    29         C        0.2855    6.9706    0.0577
    30         C        1.5585    6.4247   -0.3338
    31         C        4.3917    4.6798   -1.2354
    32         C        5.4175    3.7649   -1.4868
    33         C        5.0117    2.4059   -1.6969
    34         C        3.6399    2.0393   -1.4460
    35         C       -4.9924  -15.3887   -1.5821
    36         C       -3.9758  -15.6786   -0.6657
    37         C       -3.0437  -14.6551   -0.3037
    38         C       -3.3646  -13.3053   -0.6521
    39         C       -6.6381  -11.2770   -3.7610
    40         C       -7.6309  -11.8124   -4.6485
    41         C       -7.9636  -13.2111   -4.5812
    42         C       -7.1436  -14.0012   -3.7843
    43         C       -5.6098  -16.7014   -1.9975
    44         C       -4.5002  -17.6889   -1.6898
    45         C       -4.0745  -17.1617   -0.3551
    46         C       -8.8838  -14.1213   -5.4089
    47         C       -8.3344  -15.5230   -5.2645
    48         C       -7.3403  -15.4156   -4.1095
    49         C        0.7768    8.3730    0.7053
    50         C        1.9693    8.7709   -0.0995
    51         C        2.6237    7.4538   -0.2484
    52         C        4.9144    6.0247   -1.4036
    53         C        6.3562    5.9810   -1.8699
    54         C        6.7460    4.5330   -1.7109
    55         C        0.5585    8.7794    2.0315
    56         C        8.0997    4.2053   -1.7191
    57         C       -3.8172  -17.8045    0.8650
    58         C      -10.0319  -13.8892   -6.1482
    59         C        7.0759    7.0453   -0.9739
    60         C        3.0491    9.8086    0.2379
    61         C       -4.8461  -19.1002   -2.1322
    62         C       -9.3262  -16.6477   -4.8434
    63         C       -0.5503    8.2551    2.7692
    64         C       -0.3440    8.2914    4.1163
    65         C        0.8279    9.1006    4.3632
    66         C        1.3800    9.5236    3.1351
    67         C        9.2586    5.0536   -2.2324
    68         C       10.4548    4.4111   -1.9487
    69         C       10.1671    3.1531   -1.2996
    70         C        8.7909    3.0132   -1.1406
    71         C        1.2912    9.5158    5.6185
    72         C        2.3724   10.3880    5.6871
    73         C        2.9762   10.8301    4.5095
    74         C        2.5002   10.4117    3.2451
    75         C       -1.7398    7.8423    2.2417
    76         C       -2.7022    7.2984    3.0815
    77         C       -2.4387    7.1755    4.4554
    78         C       -1.2535    7.7069    4.9972
    79         C        9.3173    6.2688   -2.9577
    80         C       10.5593    6.8433   -3.2702
    81         C       11.7494    6.2015   -2.9091
    82         C       11.7046    4.9639   -2.2599
    83         C       11.0770    2.2010   -0.8392
    84         C       10.5808    1.0830   -0.1635
    85         C        9.2008    0.9580    0.0712
    86         C        8.3034    1.9332   -0.3994
    87         C      -10.6736  -14.7816   -7.1946
    88         C      -11.8377  -14.1754   -7.6495
    89         C      -12.0166  -12.9187   -6.9583
    90         C      -10.9790  -12.7417   -6.0541
    91         C       -3.4084  -17.1152    2.1374
    92         C       -2.8386  -18.0395    2.9931
    93         C       -3.0204  -19.3598    2.4450
    94         C       -3.6884  -19.2759    1.2226
    95         C       -2.6547  -20.5736    3.0336
    96         C       -2.9811  -21.7604    2.3792
    97         C       -3.6875  -21.7167    1.1760
    98         C       -4.0446  -20.4897    0.6027
    99         C       -3.5036  -15.7787    2.5530
   100         C       -2.9129  -15.3888    3.7686
   101         C       -2.2650  -16.3325    4.5802
   102         C       -2.2483  -17.6790    4.2064
   103         C      -10.2697  -15.9915   -7.8041
   104         C      -11.0873  -16.5904   -8.7774
   105         C      -12.2851  -15.9810   -9.1746
   106         C      -12.6626  -14.7548   -8.6196
   107         C      -13.0581  -11.9996   -7.0900
   108         C      -13.0661  -10.8814   -6.2497
   109         C      -12.0655  -10.7255   -5.2754
   110         C      -11.0288  -11.6669   -5.1615
   111         C       -9.3059    7.3248   -1.3480
   112         C       -8.0217    6.9375   -0.5360
   113         C       -6.5391    7.4886   -0.7794
   114         C       -5.3527    6.4967   -0.3264
   115         C       -3.8366    7.0062   -0.6221
   116         C       -2.5852    6.0934   -0.0671
   117         C        7.8038   -4.6989   -2.1009
   118         C        8.0902   -3.2303   -2.4140
   119         C        6.9010   -2.3524   -2.0043
   120         C        7.0850   -0.8822   -2.4072
   121         C        5.9578   -0.0191   -1.8027
   122         C        5.9412    1.4055   -2.3886
   123         C        1.0926  -20.3633    2.2378
   124         C        1.1093  -18.8347    2.1386
   125         C        0.2435  -18.3259    0.9758
   126         C        0.0621  -16.7825    1.0132
   127         C       -1.0080  -16.3173    0.0037
   128         C       -1.6548  -14.9313    0.3344
   129         C      -10.2949   -5.0177   -6.6978
   130         C      -10.2401   -6.4949   -7.0774
   131         C       -9.4053   -7.2758   -6.0619
   132         C       -9.2258   -8.7398   -6.4738
   133         C       -8.5611   -9.5159   -5.3322
   134         C       -8.1219  -10.9191   -5.7767
   135         H       -1.4402    2.0499   -1.0597
   136         H       -2.4537   -0.1168   -0.9693
   137         H        1.3344   -1.9071   -0.0705
   138         H        2.3691    0.2668   -0.0523
   139         H       -1.6218   -8.5751   -0.6897
   140         H       -2.3655  -10.7958   -1.1298
   141         H       -6.3245   -9.2933   -2.0078
   142         H       -5.5079   -7.0373   -1.6436
   143         H       -1.3131    3.9169   -0.3627
   144         H        3.3613    1.0298   -1.6678
   145         H       -2.6911  -12.5676   -0.2866
   146         H       -6.3620  -10.2490   -3.8606
   147         H       -5.6938  -16.8668   -3.0603
   148         H       -6.5513  -16.9084   -1.4380
   149         H       -3.6359  -17.4480   -2.3642
   150         H       -7.8176  -15.7777   -6.2149
   151         H       -6.3918  -15.7855   -4.5385
   152         H       -7.7081  -15.8856   -3.1731
   153         H        1.5343    9.0999   -1.0710
   154         H        3.2400    7.2168    0.6516
   155         H        3.1555    7.6197   -1.1748
   156         H        4.8525    6.4279   -0.3823
   157         H        4.3678    6.5033   -2.2377
   158         H        6.4234    6.2221   -2.9521
   159         H        6.9757    6.7950    0.1033
   160         H        6.5992    8.0365   -1.1513
   161         H        8.1479    7.2109   -1.1102
   162         H        3.6877    9.4607    1.0795
   163         H        2.6028   10.8124    0.3813
   164         H        3.7649    9.9075   -0.6102
   165         H       -3.9430  -19.7415   -2.0462
   166         H       -5.0678  -19.0970   -3.2227
   167         H       -5.7587  -19.4749   -1.6276
   168         H       -9.8144  -16.4129   -3.8750
   169         H       -8.7595  -17.6005   -4.7308
   170         H      -10.1475  -16.8664   -5.5361
   171         H        0.8062    9.1939    6.5310
   172         H        2.7325   10.7353    6.6513
   173         H        3.8175   11.5140    4.5853
   174         H        3.0447   10.8507    2.4483
   175         H       -1.8961    8.0054    1.1950
   176         H       -3.6415    6.9784    2.6611
   177         H       -3.1797    6.7250    5.0928
   178         H       -1.0758    7.6905    6.0621
   179         H        8.4457    6.8072   -3.2793
   180         H       10.5991    7.7918   -3.7925
   181         H       12.7024    6.6580   -3.1488
   182         H       12.6259    4.4584   -2.0028
   183         H       12.1430    2.3251   -0.9861
   184         H       11.2670    0.3310    0.2040
   185         H        8.8294    0.1090    0.6280
   186         H        7.2572    1.8494   -0.1724
   187         H       -2.1335  -20.6054    3.9802
   188         H       -2.7070  -22.7141    2.8095
   189         H       -3.9621  -22.6393    0.6798
   190         H       -4.5948  -20.5773   -0.2830
   191         H       -3.9956  -15.0291    1.9592
   192         H       -2.9451  -14.3517    4.0764
   193         H       -1.8000  -16.0243    5.5078
   194         H       -1.7876  -18.4174    4.8489
   195         H       -9.3515  -16.4944   -7.5610
   196         H      -10.7905  -17.5287   -9.2300
   197         H      -12.9096  -16.4520   -9.9241
   198         H      -13.5767  -14.2735   -8.9415
   199         H      -13.8500  -12.1487   -7.8129
   200         H      -13.8621  -10.1533   -6.3322
   201         H      -12.0980   -9.8780   -4.6046
   202         H      -10.2910  -11.5599   -4.3865
   203         H      -10.1707    6.8331   -0.8397
   204         H       -9.4112    7.0386   -2.4196
   205         H       -9.5758    8.3937   -1.2378
   206         H       -8.2882    7.4858    0.3415
   207         H       -8.1454    5.9558   -0.0264
   208         H       -6.4463    7.6571   -1.8532
   209         H       -6.4476    8.5301   -0.3158
   210         H       -5.4911    6.3458    0.7590
   211         H       -5.5436    5.4857   -0.7807
   212         H       -3.7774    7.1270   -1.7308
   213         H       -3.8293    8.0028   -0.1589
   214         H       -2.8819    5.2286   -0.6930
   215         H       -2.8624    5.7613    0.9428
   216         H        8.6841   -5.3226   -2.3628
   217         H        6.9332   -5.0509   -2.6957
   218         H        7.5803   -4.8336   -1.0209
   219         H        8.9941   -2.9062   -1.8521
   220         H        8.2930   -3.1336   -3.5023
   221         H        5.9757   -2.7260   -2.4969
   222         H        6.7770   -2.4305   -0.9025
   223         H        8.0620   -0.4991   -2.0407
   224         H        7.0858   -0.8226   -3.5182
   225         H        4.9775   -0.4886   -2.0288
   226         H        6.0915   -0.0048   -0.7021
   227         H        5.5994    1.3012   -3.4412
   228         H        6.9532    1.8204   -2.4937
   229         H        1.7193  -20.6895    3.0954
   230         H        1.4803  -20.8309    1.3097
   231         H        0.0594  -20.7293    2.4179
   232         H        0.7064  -18.4426    3.0983
   233         H        2.1516  -18.4759    2.0119
   234         H        0.6549  -18.6619   -0.0004
   235         H       -0.7535  -18.7983    1.0971
   236         H       -0.3211  -16.5497    2.0297
   237         H        1.0186  -16.2417    0.8614
   238         H       -0.6776  -16.3949   -1.0546
   239         H       -1.7415  -17.0794    0.0936
   240         H       -0.9267  -14.1925   -0.0632
   241         H       -1.6698  -14.6973    1.4077
   242         H      -10.9392   -4.4690   -7.4153
   243         H       -9.2733   -4.5808   -6.7311
   244         H      -10.7086   -4.8917   -5.6743
   245         H      -11.2718   -6.9109   -7.0916
   246         H       -9.8023   -6.5864   -8.0946
   247         H       -8.3937   -6.8192   -5.9717
   248         H       -9.9124   -7.2171   -5.0739
   249         H      -10.2069   -9.2110   -6.6975
   250         H       -8.6026   -8.7735   -7.3949
   251         H       -7.6606   -8.9586   -5.0023
   252         H       -9.2700   -9.5602   -4.4807
   253         H       -7.2726  -10.7720   -6.4789
   254         H       -8.8741  -11.4254   -6.3938

 General Reference for PM7:
 "Optimization of Parameters for Semiempirical Methods VI: More Modifications to the 
 NDDO Approximations and Re-optimization of Parameters", J. J. P. Stewart, J. Mol. Mod., 1:32, 19 (2013)
 http://www.springerlink.com/openurl.asp?genre=article&id=doi:10.1007/s00894-012-1667-x

           Empirical Formula: C132 H120 N2  =   254 atoms



      MOLECULAR POINT GROUP   :   C1  


      RHF CALCULATION, NO. OF DOUBLY OCCUPIED LEVELS = 329


          Geometry optimization using BFGS
 CYCLE:     1 TIME:   2.689 TIME LEFT:  2.00D  GRAD.:   451.272 HEAT:  670.3153
 CYCLE:     2 TIME:   2.226 TIME LEFT:  2.00D  GRAD.:   392.107 HEAT:  659.9656
 CYCLE:     3 TIME:   2.436 TIME LEFT:  2.00D  GRAD.:   265.616 HEAT:  645.6519
 CYCLE:     4 TIME:   2.229 TIME LEFT:  2.00D  GRAD.:   226.249 HEAT:  638.6238
 CYCLE:     5 TIME:   2.175 TIME LEFT:  2.00D  GRAD.:   200.546 HEAT:  630.4724
 CYCLE:     6 TIME:   2.178 TIME LEFT:  2.00D  GRAD.:   168.710 HEAT:  622.7156
 CYCLE:     7 TIME:   2.547 TIME LEFT:  2.00D  GRAD.:   154.341 HEAT:  619.5548
 CYCLE:     8 TIME:   2.442 TIME LEFT:  2.00D  GRAD.:   134.981 HEAT:  617.0020
 CYCLE:     9 TIME:   2.452 TIME LEFT:  2.00D  GRAD.:   113.102 HEAT:  614.0751
 CYCLE:    10 TIME:   2.363 TIME LEFT:  2.00D  GRAD.:   106.669 HEAT:  612.0915
 CYCLE:    11 TIME:   2.326 TIME LEFT:  2.00D  GRAD.:    95.137 HEAT:  609.7645
 CYCLE:    12 TIME:   2.216 TIME LEFT:  2.00D  GRAD.:    98.721 HEAT:  607.5248
 CYCLE:    13 TIME:   2.322 TIME LEFT:  2.00D  GRAD.:   107.201 HEAT:  603.7475
 CYCLE:    14 TIME:   2.196 TIME LEFT:  2.00D  GRAD.:   129.043 HEAT:  599.6115
 CYCLE:    15 TIME:   2.208 TIME LEFT:  2.00D  GRAD.:   117.413 HEAT:  594.1532
 CYCLE:    16 TIME:   2.096 TIME LEFT:  2.00D  GRAD.:   111.366 HEAT:  589.7568
 CYCLE:    17 TIME:   2.221 TIME LEFT:  2.00D  GRAD.:   100.997 HEAT:  585.7260
 CYCLE:    18 TIME:   2.145 TIME LEFT:  2.00D  GRAD.:   110.628 HEAT:  582.0751
 CYCLE:    19 TIME:   2.213 TIME LEFT:  2.00D  GRAD.:   115.990 HEAT:  577.1676
 CYCLE:    20 TIME:   2.260 TIME LEFT:  2.00D  GRAD.:   120.706 HEAT:  571.0428
 CYCLE:    21 TIME:   2.211 TIME LEFT:  2.00D  GRAD.:   118.884 HEAT:  566.0707
 CYCLE:    22 TIME:   2.188 TIME LEFT:  2.00D  GRAD.:   113.162 HEAT:  561.5300
 CYCLE:    23 TIME:   2.239 TIME LEFT:  2.00D  GRAD.:   106.154 HEAT:  557.1935
 CYCLE:    24 TIME:   1.954 TIME LEFT:  2.00D  GRAD.:   109.471 HEAT:  551.8897
 CYCLE:    25 TIME:   2.107 TIME LEFT:  2.00D  GRAD.:   113.724 HEAT:  547.6448
 CYCLE:    26 TIME:   2.070 TIME LEFT:  2.00D  GRAD.:   103.167 HEAT:  543.3825
 CYCLE:    27 TIME:   2.044 TIME LEFT:  2.00D  GRAD.:    96.773 HEAT:  539.5026
 CYCLE:    28 TIME:   2.035 TIME LEFT:  2.00D  GRAD.:    89.008 HEAT:  536.5408
 CYCLE:    29 TIME:   1.953 TIME LEFT:  2.00D  GRAD.:    85.546 HEAT:  533.6235
 CYCLE:    30 TIME:   1.948 TIME LEFT:  2.00D  GRAD.:    82.157 HEAT:  530.9530
 CYCLE:    31 TIME:   1.979 TIME LEFT:  2.00D  GRAD.:    79.780 HEAT:  528.7744
 CYCLE:    32 TIME:   1.991 TIME LEFT:  2.00D  GRAD.:    74.202 HEAT:  526.5174
 CYCLE:    33 TIME:   1.938 TIME LEFT:  2.00D  GRAD.:    71.719 HEAT:  524.2758
 CYCLE:    34 TIME:   2.025 TIME LEFT:  2.00D  GRAD.:    71.212 HEAT:  522.1865
 CYCLE:    35 TIME:   1.936 TIME LEFT:  2.00D  GRAD.:    67.409 HEAT:  519.8689
 CYCLE:    36 TIME:   1.249 TIME LEFT:  2.00D  GRAD.:    96.652 HEAT:  518.3855
 CYCLE:    37 TIME:   1.901 TIME LEFT:  2.00D  GRAD.:    79.424 HEAT:  515.7651
 CYCLE:    38 TIME:   2.004 TIME LEFT:  2.00D  GRAD.:    68.067 HEAT:  513.7363
 CYCLE:    39 TIME:   1.985 TIME LEFT:  2.00D  GRAD.:    63.803 HEAT:  511.9769
 CYCLE:    40 TIME:   1.973 TIME LEFT:  2.00D  GRAD.:    68.397 HEAT:  510.4890
 CYCLE:    41 TIME:   1.295 TIME LEFT:  2.00D  GRAD.:   119.670 HEAT:  509.8885
 CYCLE:    42 TIME:   1.306 TIME LEFT:  2.00D  GRAD.:   123.120 HEAT:  507.3615
 CYCLE:    43 TIME:   2.011 TIME LEFT:  2.00D  GRAD.:    76.446 HEAT:  504.0921
 CYCLE:    44 TIME:   2.093 TIME LEFT:  2.00D  GRAD.:    57.910 HEAT:  502.3744
 CYCLE:    45 TIME:   1.193 TIME LEFT:  2.00D  GRAD.:    83.298 HEAT:  501.8297
 CYCLE:    46 TIME:   1.203 TIME LEFT:  2.00D  GRAD.:    70.214 HEAT:  499.2199
 CYCLE:    47 TIME:   1.238 TIME LEFT:  2.00D  GRAD.:    89.565 HEAT:  498.9917
 CYCLE:    48 TIME:   1.185 TIME LEFT:  2.00D  GRAD.:    67.474 HEAT:  496.1583
 CYCLE:    49 TIME:   1.227 TIME LEFT:  2.00D  GRAD.:    85.304 HEAT:  495.7478
 CYCLE:    50 TIME:   1.234 TIME LEFT:  2.00D  GRAD.:    65.347 HEAT:  493.1530
 CYCLE:    51 TIME:   1.272 TIME LEFT:  2.00D  GRAD.:    88.037 HEAT:  493.0280
 CYCLE:    52 TIME:   1.185 TIME LEFT:  2.00D  GRAD.:    58.852 HEAT:  490.3584
 CYCLE:    53 TIME:   1.192 TIME LEFT:  2.00D  GRAD.:    78.121 HEAT:  490.2193
 CYCLE:    54 TIME:   1.242 TIME LEFT:  2.00D  GRAD.:    71.248 HEAT:  488.1441
 CYCLE:    55 TIME:   1.270 TIME LEFT:  2.00D  GRAD.:    71.041 HEAT:  486.8310
 CYCLE:    56 TIME:   1.111 TIME LEFT:  2.00D  GRAD.:    65.029 HEAT:  485.0310
 CYCLE:    57 TIME:   1.229 TIME LEFT:  2.00D  GRAD.:    73.293 HEAT:  484.2232
 CYCLE:    58 TIME:   1.202 TIME LEFT:  2.00D  GRAD.:    59.797 HEAT:  482.4358
 CYCLE:    59 TIME:   1.188 TIME LEFT:  2.00D  GRAD.:    68.422 HEAT:  481.5038
 CYCLE:    60 TIME:   1.188 TIME LEFT:  2.00D  GRAD.:    61.121 HEAT:  480.2539
 CYCLE:    61 TIME:   1.265 TIME LEFT:  2.00D  GRAD.:    70.017 HEAT:  479.0694
 CYCLE:    62 TIME:   1.253 TIME LEFT:  2.00D  GRAD.:    60.237 HEAT:  477.8218
 CYCLE:    63 TIME:   1.116 TIME LEFT:  2.00D  GRAD.:    57.092 HEAT:  475.9795
 CYCLE:    64 TIME:   1.194 TIME LEFT:  2.00D  GRAD.:    56.301 HEAT:  475.0410
 CYCLE:    65 TIME:   1.211 TIME LEFT:  2.00D  GRAD.:    52.485 HEAT:  473.2951
 CYCLE:    66 TIME:   1.200 TIME LEFT:  2.00D  GRAD.:    48.234 HEAT:  471.8694
 CYCLE:    67 TIME:   1.213 TIME LEFT:  2.00D  GRAD.:    59.298 HEAT:  470.5590
 CYCLE:    68 TIME:   1.202 TIME LEFT:  2.00D  GRAD.:    68.418 HEAT:  469.7949
 CYCLE:    69 TIME:   1.198 TIME LEFT:  2.00D  GRAD.:    56.830 HEAT:  468.3771
 CYCLE:    70 TIME:   1.200 TIME LEFT:  2.00D  GRAD.:    60.383 HEAT:  467.8951
 CYCLE:    71 TIME:   1.204 TIME LEFT:  2.00D  GRAD.:    41.298 HEAT:  466.3083
 CYCLE:    72 TIME:   1.202 TIME LEFT:  2.00D  GRAD.:    46.401 HEAT:  465.6000
 CYCLE:    73 TIME:   1.208 TIME LEFT:  2.00D  GRAD.:    33.753 HEAT:  464.4392
 CYCLE:    74 TIME:   1.199 TIME LEFT:  2.00D  GRAD.:    41.503 HEAT:  463.3626
 CYCLE:    75 TIME:   1.211 TIME LEFT:  2.00D  GRAD.:    43.426 HEAT:  462.3280
 CYCLE:    76 TIME:   1.209 TIME LEFT:  2.00D  GRAD.:    51.212 HEAT:  461.7280
 CYCLE:    77 TIME:   1.194 TIME LEFT:  2.00D  GRAD.:    36.072 HEAT:  460.6126
 CYCLE:    78 TIME:   1.196 TIME LEFT:  2.00D  GRAD.:    37.112 HEAT:  460.0158
 CYCLE:    79 TIME:   1.195 TIME LEFT:  2.00D  GRAD.:    30.456 HEAT:  459.0779
 CYCLE:    80 TIME:   1.191 TIME LEFT:  2.00D  GRAD.:    30.079 HEAT:  458.1468
 CYCLE:    81 TIME:   1.256 TIME LEFT:  2.00D  GRAD.:    36.624 HEAT:  457.2724
 CYCLE:    82 TIME:   1.313 TIME LEFT:  2.00D  GRAD.:    38.296 HEAT:  456.5037
 CYCLE:    83 TIME:   1.123 TIME LEFT:  2.00D  GRAD.:    38.135 HEAT:  455.8770
 CYCLE:    84 TIME:   1.120 TIME LEFT:  2.00D  GRAD.:    32.024 HEAT:  455.2059
 TEST ON GRADIENT SATISFIED
                    HOWEVER, A COMPONENT OF GRADIENT IS LARGER THAN  1.00

 CYCLE:    85 TIME:   1.125 TIME LEFT:  2.00D  GRAD.:    27.093 HEAT:  454.6509
 TEST ON GRADIENT SATISFIED
                    HOWEVER, A COMPONENT OF GRADIENT IS LARGER THAN  1.00

 CYCLE:    86 TIME:   1.117 TIME LEFT:  2.00D  GRAD.:    27.353 HEAT:  454.0789
 TEST ON GRADIENT SATISFIED
                    HOWEVER, A COMPONENT OF GRADIENT IS LARGER THAN  1.00

 CYCLE:    87 TIME:   1.117 TIME LEFT:  2.00D  GRAD.:    26.478 HEAT:  453.6056
 TEST ON GRADIENT SATISFIED
                    HOWEVER, A COMPONENT OF GRADIENT IS LARGER THAN  1.00

 CYCLE:    88 TIME:   1.118 TIME LEFT:  2.00D  GRAD.:    26.890 HEAT:  453.0797
 TEST ON GRADIENT SATISFIED
                    HOWEVER, A COMPONENT OF GRADIENT IS LARGER THAN  1.00

 CYCLE:    89 TIME:   1.123 TIME LEFT:  2.00D  GRAD.:    23.370 HEAT:  452.5042
 CYCLE:    90 TIME:   1.199 TIME LEFT:  2.00D  GRAD.:    28.679 HEAT:  451.9153
 CYCLE:    91 TIME:   1.193 TIME LEFT:  2.00D  GRAD.:    28.020 HEAT:  451.4465
 TEST ON GRADIENT SATISFIED
                    HOWEVER, A COMPONENT OF GRADIENT IS LARGER THAN  1.00

 CYCLE:    92 TIME:   1.125 TIME LEFT:  2.00D  GRAD.:    25.225 HEAT:  451.0009
 TEST ON GRADIENT SATISFIED
                    HOWEVER, A COMPONENT OF GRADIENT IS LARGER THAN  1.00

 CYCLE:    93 TIME:   1.143 TIME LEFT:  2.00D  GRAD.:    22.569 HEAT:  450.5740
 TEST ON GRADIENT SATISFIED
                    HOWEVER, A COMPONENT OF GRADIENT IS LARGER THAN  1.00

 CYCLE:    94 TIME:   1.122 TIME LEFT:  2.00D  GRAD.:    25.158 HEAT:  450.1417
 TEST ON GRADIENT SATISFIED
                    HOWEVER, A COMPONENT OF GRADIENT IS LARGER THAN  1.00

 CYCLE:    95 TIME:   1.126 TIME LEFT:  2.00D  GRAD.:    24.471 HEAT:  449.7938
 TEST ON GRADIENT SATISFIED
                    HOWEVER, A COMPONENT OF GRADIENT IS LARGER THAN  1.00

 CYCLE:    96 TIME:   1.129 TIME LEFT:  2.00D  GRAD.:    24.430 HEAT:  449.5185
 TEST ON GRADIENT SATISFIED
                    HOWEVER, A COMPONENT OF GRADIENT IS LARGER THAN  1.00

 CYCLE:    97 TIME:   1.130 TIME LEFT:  2.00D  GRAD.:    23.486 HEAT:  449.1547
 TEST ON GRADIENT SATISFIED
                    HOWEVER, A COMPONENT OF GRADIENT IS LARGER THAN  1.00

 CYCLE:    98 TIME:   1.131 TIME LEFT:  2.00D  GRAD.:    22.441 HEAT:  448.7563
 TEST ON GRADIENT SATISFIED
                    HOWEVER, A COMPONENT OF GRADIENT IS LARGER THAN  1.00

 CYCLE:    99 TIME:   1.120 TIME LEFT:  2.00D  GRAD.:    22.255 HEAT:  448.4532
 TEST ON GRADIENT SATISFIED
                    HOWEVER, A COMPONENT OF GRADIENT IS LARGER THAN  1.00

 CYCLE:   100 TIME:   1.125 TIME LEFT:  2.00D  GRAD.:    23.184 HEAT:  448.1583
 TEST ON GRADIENT SATISFIED
                    HOWEVER, A COMPONENT OF GRADIENT IS LARGER THAN  1.00

 CYCLE:   101 TIME:   1.124 TIME LEFT:  2.00D  GRAD.:    19.677 HEAT:  447.8149
 TEST ON GRADIENT SATISFIED
                    HOWEVER, A COMPONENT OF GRADIENT IS LARGER THAN  1.00

 CYCLE:   102 TIME:   1.120 TIME LEFT:  2.00D  GRAD.:    17.955 HEAT:  447.5334
 TEST ON GRADIENT SATISFIED
                    HOWEVER, A COMPONENT OF GRADIENT IS LARGER THAN  1.00

 CYCLE:   103 TIME:   1.122 TIME LEFT:  2.00D  GRAD.:    22.473 HEAT:  447.2304
 TEST ON GRADIENT SATISFIED
                    HOWEVER, A COMPONENT OF GRADIENT IS LARGER THAN  1.00

 CYCLE:   104 TIME:   1.198 TIME LEFT:  2.00D  GRAD.:    18.252 HEAT:  446.8777
 TEST ON GRADIENT SATISFIED
                    HOWEVER, A COMPONENT OF GRADIENT IS LARGER THAN  1.00

 CYCLE:   105 TIME:   1.124 TIME LEFT:  2.00D  GRAD.:    20.850 HEAT:  446.5543
 TEST ON GRADIENT SATISFIED
                    HOWEVER, A COMPONENT OF GRADIENT IS LARGER THAN  1.00

 CYCLE:   106 TIME:   1.120 TIME LEFT:  2.00D  GRAD.:    19.016 HEAT:  446.1961
 TEST ON GRADIENT SATISFIED
                    HOWEVER, A COMPONENT OF GRADIENT IS LARGER THAN  1.00

 CYCLE:   107 TIME:   1.117 TIME LEFT:  2.00D  GRAD.:    22.406 HEAT:  445.8451
 TEST ON GRADIENT SATISFIED
                    HOWEVER, A COMPONENT OF GRADIENT IS LARGER THAN  1.00

 CYCLE:   108 TIME:   1.121 TIME LEFT:  2.00D  GRAD.:    21.262 HEAT:  445.4778
 TEST ON GRADIENT SATISFIED
                    HOWEVER, A COMPONENT OF GRADIENT IS LARGER THAN  1.00

 CYCLE:   109 TIME:   1.124 TIME LEFT:  2.00D  GRAD.:    20.678 HEAT:  445.1524
 TEST ON GRADIENT SATISFIED
                    HOWEVER, A COMPONENT OF GRADIENT IS LARGER THAN  1.00

 CYCLE:   110 TIME:   1.682 TIME LEFT:  2.00D  GRAD.:    23.762 HEAT:  444.7615
 TEST ON GRADIENT SATISFIED
                    HOWEVER, A COMPONENT OF GRADIENT IS LARGER THAN  1.00

 CYCLE:   111 TIME:   1.120 TIME LEFT:  2.00D  GRAD.:    25.389 HEAT:  444.3586
 TEST ON GRADIENT SATISFIED
                    HOWEVER, A COMPONENT OF GRADIENT IS LARGER THAN  1.00

 CYCLE:   112 TIME:   1.114 TIME LEFT:  2.00D  GRAD.:    24.904 HEAT:  443.9763
 TEST ON GRADIENT SATISFIED
                    HOWEVER, A COMPONENT OF GRADIENT IS LARGER THAN  1.00

 CYCLE:   113 TIME:   1.116 TIME LEFT:  2.00D  GRAD.:    21.933 HEAT:  443.7162
 TEST ON GRADIENT SATISFIED
                    HOWEVER, A COMPONENT OF GRADIENT IS LARGER THAN  1.00

 CYCLE:   114 TIME:   1.116 TIME LEFT:  2.00D  GRAD.:    20.116 HEAT:  443.3816
 TEST ON GRADIENT SATISFIED
                    HOWEVER, A COMPONENT OF GRADIENT IS LARGER THAN  1.00

 CYCLE:   115 TIME:   1.111 TIME LEFT:  2.00D  GRAD.:    17.563 HEAT:  443.0340
 TEST ON GRADIENT SATISFIED
                    HOWEVER, A COMPONENT OF GRADIENT IS LARGER THAN  1.00

 CYCLE:   116 TIME:   1.676 TIME LEFT:  2.00D  GRAD.:    24.440 HEAT:  442.6232
 TEST ON GRADIENT SATISFIED
                    HOWEVER, A COMPONENT OF GRADIENT IS LARGER THAN  1.00

 CYCLE:   117 TIME:   1.111 TIME LEFT:  2.00D  GRAD.:    19.245 HEAT:  442.2923
 TEST ON GRADIENT SATISFIED
                    HOWEVER, A COMPONENT OF GRADIENT IS LARGER THAN  1.00

 CYCLE:   118 TIME:   1.112 TIME LEFT:  2.00D  GRAD.:    19.866 HEAT:  442.0733
 TEST ON GRADIENT SATISFIED
                    HOWEVER, A COMPONENT OF GRADIENT IS LARGER THAN  1.00

 CYCLE:   119 TIME:   1.677 TIME LEFT:  2.00D  GRAD.:    24.240 HEAT:  441.7491
 TEST ON GRADIENT SATISFIED
                    HOWEVER, A COMPONENT OF GRADIENT IS LARGER THAN  1.00

 CYCLE:   120 TIME:   1.114 TIME LEFT:  2.00D  GRAD.:    18.966 HEAT:  441.4064
 TEST ON GRADIENT SATISFIED
                    HOWEVER, A COMPONENT OF GRADIENT IS LARGER THAN  1.00

 CYCLE:   121 TIME:   1.115 TIME LEFT:  2.00D  GRAD.:    19.190 HEAT:  441.1443
 TEST ON GRADIENT SATISFIED
                    HOWEVER, A COMPONENT OF GRADIENT IS LARGER THAN  1.00

 CYCLE:   122 TIME:   1.119 TIME LEFT:  2.00D  GRAD.:    18.318 HEAT:  440.8570
 TEST ON GRADIENT SATISFIED
                    HOWEVER, A COMPONENT OF GRADIENT IS LARGER THAN  1.00

 CYCLE:   123 TIME:   1.675 TIME LEFT:  2.00D  GRAD.:    20.070 HEAT:  440.4374
 TEST ON GRADIENT SATISFIED
                    HOWEVER, A COMPONENT OF GRADIENT IS LARGER THAN  1.00

 CYCLE:   124 TIME:   1.127 TIME LEFT:  2.00D  GRAD.:    15.974 HEAT:  440.0902
 TEST ON GRADIENT SATISFIED
                    HOWEVER, A COMPONENT OF GRADIENT IS LARGER THAN  1.00

 CYCLE:   125 TIME:   1.683 TIME LEFT:  2.00D  GRAD.:    20.162 HEAT:  439.7309
 TEST ON GRADIENT SATISFIED
                    HOWEVER, A COMPONENT OF GRADIENT IS LARGER THAN  1.00

 CYCLE:   126 TIME:   1.129 TIME LEFT:  2.00D  GRAD.:    16.638 HEAT:  439.5061
 TEST ON GRADIENT SATISFIED
                    HOWEVER, A COMPONENT OF GRADIENT IS LARGER THAN  1.00

 CYCLE:   127 TIME:   1.684 TIME LEFT:  2.00D  GRAD.:    17.526 HEAT:  439.2649
 TEST ON GRADIENT SATISFIED
                    HOWEVER, A COMPONENT OF GRADIENT IS LARGER THAN  1.00

 CYCLE:   128 TIME:   1.126 TIME LEFT:  2.00D  GRAD.:    15.875 HEAT:  439.0710
 TEST ON GRADIENT SATISFIED
                    HOWEVER, A COMPONENT OF GRADIENT IS LARGER THAN  1.00

 CYCLE:   129 TIME:   1.112 TIME LEFT:  2.00D  GRAD.:    14.303 HEAT:  438.8948
 TEST ON GRADIENT SATISFIED
                    HOWEVER, A COMPONENT OF GRADIENT IS LARGER THAN  1.00

 CYCLE:   130 TIME:   1.130 TIME LEFT:  2.00D  GRAD.:    12.746 HEAT:  438.7469
 TEST ON GRADIENT SATISFIED
                    HOWEVER, A COMPONENT OF GRADIENT IS LARGER THAN  1.00

 CYCLE:   131 TIME:   1.683 TIME LEFT:  2.00D  GRAD.:    13.198 HEAT:  438.5842
 TEST ON GRADIENT SATISFIED
                    HOWEVER, A COMPONENT OF GRADIENT IS LARGER THAN  1.00

 CYCLE:   132 TIME:   1.689 TIME LEFT:  2.00D  GRAD.:    20.613 HEAT:  438.3837
 TEST ON GRADIENT SATISFIED
                    HOWEVER, A COMPONENT OF GRADIENT IS LARGER THAN  1.00

 CYCLE:   133 TIME:   1.118 TIME LEFT:  2.00D  GRAD.:    15.637 HEAT:  438.1805
 TEST ON GRADIENT SATISFIED
                    HOWEVER, A COMPONENT OF GRADIENT IS LARGER THAN  1.00

 CYCLE:   134 TIME:   1.110 TIME LEFT:  2.00D  GRAD.:    13.306 HEAT:  438.0304
 TEST ON GRADIENT SATISFIED
                    HOWEVER, A COMPONENT OF GRADIENT IS LARGER THAN  1.00

 CYCLE:   135 TIME:   1.137 TIME LEFT:  2.00D  GRAD.:    13.088 HEAT:  437.8596
 TEST ON GRADIENT SATISFIED
                    HOWEVER, A COMPONENT OF GRADIENT IS LARGER THAN  1.00

 CYCLE:   136 TIME:   1.678 TIME LEFT:  2.00D  GRAD.:    17.607 HEAT:  437.6360
 TEST ON GRADIENT SATISFIED
                    HOWEVER, A COMPONENT OF GRADIENT IS LARGER THAN  1.00

 CYCLE:   137 TIME:   1.127 TIME LEFT:  2.00D  GRAD.:    13.892 HEAT:  437.4946
 TEST ON GRADIENT SATISFIED
                    HOWEVER, A COMPONENT OF GRADIENT IS LARGER THAN  1.00

 CYCLE:   138 TIME:   1.115 TIME LEFT:  2.00D  GRAD.:    12.934 HEAT:  437.3430
 TEST ON GRADIENT SATISFIED
                    HOWEVER, A COMPONENT OF GRADIENT IS LARGER THAN  1.00

 CYCLE:   139 TIME:   1.138 TIME LEFT:  2.00D  GRAD.:    13.641 HEAT:  437.1861
 TEST ON GRADIENT SATISFIED
                    HOWEVER, A COMPONENT OF GRADIENT IS LARGER THAN  1.00

 CYCLE:   140 TIME:   1.684 TIME LEFT:  2.00D  GRAD.:    16.653 HEAT:  436.9946
 TEST ON GRADIENT SATISFIED
                    HOWEVER, A COMPONENT OF GRADIENT IS LARGER THAN  1.00

 CYCLE:   141 TIME:   1.124 TIME LEFT:  2.00D  GRAD.:    10.974 HEAT:  436.8536
 TEST ON GRADIENT SATISFIED
                    HOWEVER, A COMPONENT OF GRADIENT IS LARGER THAN  1.00

 CYCLE:   142 TIME:   1.682 TIME LEFT:  2.00D  GRAD.:    16.325 HEAT:  436.7182
 TEST ON GRADIENT SATISFIED
                    HOWEVER, A COMPONENT OF GRADIENT IS LARGER THAN  1.00

 CYCLE:   143 TIME:   1.123 TIME LEFT:  2.00D  GRAD.:    12.975 HEAT:  436.5542
 TEST ON GRADIENT SATISFIED
                    HOWEVER, A COMPONENT OF GRADIENT IS LARGER THAN  1.00

 CYCLE:   144 TIME:   1.114 TIME LEFT:  2.00D  GRAD.:    10.951 HEAT:  436.4166
 TEST ON GRADIENT SATISFIED
                    HOWEVER, A COMPONENT OF GRADIENT IS LARGER THAN  1.00

 CYCLE:   145 TIME:   1.701 TIME LEFT:  2.00D  GRAD.:    20.137 HEAT:  436.2718
 TEST ON GRADIENT SATISFIED
                    HOWEVER, A COMPONENT OF GRADIENT IS LARGER THAN  1.00

 CYCLE:   146 TIME:   1.116 TIME LEFT:  2.00D  GRAD.:    14.487 HEAT:  436.0924
 TEST ON GRADIENT SATISFIED
                    HOWEVER, A COMPONENT OF GRADIENT IS LARGER THAN  1.00

 CYCLE:   147 TIME:   1.122 TIME LEFT:  2.00D  GRAD.:    12.463 HEAT:  435.9505
 TEST ON GRADIENT SATISFIED
                    HOWEVER, A COMPONENT OF GRADIENT IS LARGER THAN  1.00

 CYCLE:   148 TIME:   1.680 TIME LEFT:  2.00D  GRAD.:    13.247 HEAT:  435.7406
 TEST ON GRADIENT SATISFIED
                    HOWEVER, A COMPONENT OF GRADIENT IS LARGER THAN  1.00

 CYCLE:   149 TIME:   1.126 TIME LEFT:  2.00D  GRAD.:    12.558 HEAT:  435.5635
 TEST ON GRADIENT SATISFIED
                    HOWEVER, A COMPONENT OF GRADIENT IS LARGER THAN  1.00

 CYCLE:   150 TIME:   1.687 TIME LEFT:  2.00D  GRAD.:    17.152 HEAT:  435.3754
 TEST ON GRADIENT SATISFIED
                    HOWEVER, A COMPONENT OF GRADIENT IS LARGER THAN  1.00

 CYCLE:   151 TIME:   1.112 TIME LEFT:  2.00D  GRAD.:    10.163 HEAT:  435.2806
 TEST ON GRADIENT SATISFIED
                    HOWEVER, A COMPONENT OF GRADIENT IS LARGER THAN  1.00

 CYCLE:   152 TIME:   1.114 TIME LEFT:  2.00D  GRAD.:    14.892 HEAT:  435.1953
 TEST ON GRADIENT SATISFIED
                    HOWEVER, A COMPONENT OF GRADIENT IS LARGER THAN  1.00

           THERE HAVE BEEN 3 ATTEMPTS TO REDUCE THE GRADIENT.
           DURING THESE ATTEMPTS THE ENERGY DROPPED BY LESS THAN 0.3 KCAL/MOLE
           FURTHER CALCULATION IS NOT JUSTIFIED AT THIS TIME.
           TO CONTINUE, START AGAIN WITH THE WORD "PRECISE"

 -------------------------------------------------------------------------------
PM7 BFGS CHARGE=0
 chassi-I1-hand1.xyz



     GRADIENT TEST NOT PASSED, BUT FURTHER WORK NOT JUSTIFIED 
     SCF FIELD WAS ACHIEVED                                   


                              PM7 CALCULATION
                                                       MOPAC2016 (Version: 16.035L)
                                                       Fri Apr 28 02:56:27 2017
                                                       No. of days remaining = 474




          FINAL HEAT OF FORMATION =        435.09339 KCAL/MOL =    1820.43076 KJ/MOL


          TOTAL ENERGY            =     -18199.81872 EV
          ELECTRONIC ENERGY       =    -341338.97169 EV  POINT GROUP:     C1  
          CORE-CORE REPULSION     =     323139.15297 EV
          COSMO AREA              =       1636.71 SQUARE ANGSTROMS
          COSMO VOLUME            =       2156.56 CUBIC ANGSTROMS

          GRADIENT NORM           =         11.24718
          IONIZATION POTENTIAL    =          7.870469 EV
          HOMO LUMO ENERGIES (EV) =         -7.870 -1.233
          NO. OF FILLED LEVELS    =        329
          MOLECULAR WEIGHT        =       1734.4134

          MOLECULAR DIMENSIONS (Angstroms)

            Atom       Atom       Distance
            H   180    H   188    32.54309
            H   171    H   197    21.96779
            H   203    H   216    21.44946


          SCF CALCULATIONS        =        210
 
          WALL-CLOCK TIME         =  3 MINUTES AND 49.757 SECONDS
          COMPUTATION TIME        =  3 MINUTES AND 47.935 SECONDS



       FINAL  POINT  AND  DERIVATIVES

   PARAMETER     ATOM    TYPE            VALUE       GRADIENT
      1          1  C    CARTESIAN X    -0.379545    -1.442213  KCAL/ANGSTROM
      2          1  C    CARTESIAN Y     0.731392     0.162184  KCAL/ANGSTROM
      3          1  C    CARTESIAN Z    -1.444597    -1.023661  KCAL/ANGSTROM
      4          2  C    CARTESIAN X    -0.971356     0.760007  KCAL/ANGSTROM
      5          2  C    CARTESIAN Y    -0.520606     0.176583  KCAL/ANGSTROM
      6          2  C    CARTESIAN Z    -1.535893     0.690961  KCAL/ANGSTROM
      7          3  C    CARTESIAN X    -0.310370    -0.413232  KCAL/ANGSTROM
      8          3  C    CARTESIAN Y    -1.656085     0.302300  KCAL/ANGSTROM
      9          3  C    CARTESIAN Z    -1.044802    -0.121310  KCAL/ANGSTROM
     10          4  C    CARTESIAN X     0.947953    -0.413919  KCAL/ANGSTROM
     11          4  C    CARTESIAN Y    -1.517514     0.675714  KCAL/ANGSTROM
     12          4  C    CARTESIAN Z    -0.440045    -0.258477  KCAL/ANGSTROM
     13          5  C    CARTESIAN X     1.542468     0.107400  KCAL/ANGSTROM
     14          5  C    CARTESIAN Y    -0.266588     0.663192  KCAL/ANGSTROM
     15          5  C    CARTESIAN Z    -0.328817    -0.357822  KCAL/ANGSTROM
     16          6  C    CARTESIAN X     0.877911     1.551873  KCAL/ANGSTROM
     17          6  C    CARTESIAN Y     0.861074    -0.211426  KCAL/ANGSTROM
     18          6  C    CARTESIAN Z    -0.831320     1.223109  KCAL/ANGSTROM
     19          7  C    CARTESIAN X    -0.903475    -0.089022  KCAL/ANGSTROM
     20          7  C    CARTESIAN Y    -2.924891    -0.195353  KCAL/ANGSTROM
     21          7  C    CARTESIAN Z    -1.167262    -0.117976  KCAL/ANGSTROM
     22          8  N    CARTESIAN X     1.470351    -0.485098  KCAL/ANGSTROM
     23          8  N    CARTESIAN Y     2.136719     0.491814  KCAL/ANGSTROM
     24          8  N    CARTESIAN Z    -0.710412     0.041422  KCAL/ANGSTROM
     25          9  C    CARTESIAN X    -1.414243    -0.562888  KCAL/ANGSTROM
     26          9  C    CARTESIAN Y    -4.025679    -0.278835  KCAL/ANGSTROM
     27          9  C    CARTESIAN Z    -1.282351    -0.493870  KCAL/ANGSTROM
     28         10  C    CARTESIAN X    -1.969997     0.159263  KCAL/ANGSTROM
     29         10  C    CARTESIAN Y    -5.256238     0.610118  KCAL/ANGSTROM
     30         10  C    CARTESIAN Z    -1.404626    -0.016597  KCAL/ANGSTROM
     31         11  C    CARTESIAN X    -2.461011     0.600451  KCAL/ANGSTROM
     32         11  C    CARTESIAN Y    -6.366696     0.541483  KCAL/ANGSTROM
     33         11  C    CARTESIAN Z    -1.512626     0.115451  KCAL/ANGSTROM
     34         12  C    CARTESIAN X    -3.023545    -0.052238  KCAL/ANGSTROM
     35         12  C    CARTESIAN Y    -7.648939    -0.068334  KCAL/ANGSTROM
     36         12  C    CARTESIAN Z    -1.644949     0.066876  KCAL/ANGSTROM
     37         13  C    CARTESIAN X    -2.193000     0.435674  KCAL/ANGSTROM
     38         13  C    CARTESIAN Y    -8.761982    -1.203000  KCAL/ANGSTROM
     39         13  C    CARTESIAN Z    -1.848230    -0.168061  KCAL/ANGSTROM
     40         14  C    CARTESIAN X    -2.741800    -0.944147  KCAL/ANGSTROM
     41         14  C    CARTESIAN Y   -10.028673    -0.142071  KCAL/ANGSTROM
     42         14  C    CARTESIAN Z    -1.996478     0.121620  KCAL/ANGSTROM
     43         15  C    CARTESIAN X    -4.132517     0.289175  KCAL/ANGSTROM
     44         15  C    CARTESIAN Y   -10.192657     1.351565  KCAL/ANGSTROM
     45         15  C    CARTESIAN Z    -1.931221     0.301319  KCAL/ANGSTROM
     46         16  C    CARTESIAN X    -4.969939     1.169953  KCAL/ANGSTROM
     47         16  C    CARTESIAN Y    -9.087879     0.234268  KCAL/ANGSTROM
     48         16  C    CARTESIAN Z    -1.720761    -0.159402  KCAL/ANGSTROM
     49         17  C    CARTESIAN X    -4.415037    -2.300779  KCAL/ANGSTROM
     50         17  C    CARTESIAN Y    -7.823207    -0.843309  KCAL/ANGSTROM
     51         17  C    CARTESIAN Z    -1.581960    -0.081402  KCAL/ANGSTROM
     52         18  N    CARTESIAN X    -4.701447     0.040218  KCAL/ANGSTROM
     53         18  N    CARTESIAN Y   -11.476310    -1.313154  KCAL/ANGSTROM
     54         18  N    CARTESIAN Z    -2.087244    -0.521934  KCAL/ANGSTROM
     55         19  C    CARTESIAN X    -5.724836     0.171753  KCAL/ANGSTROM
     56         19  C    CARTESIAN Y   -11.797392    -0.451784  KCAL/ANGSTROM
     57         19  C    CARTESIAN Z    -2.999895    -0.075538  KCAL/ANGSTROM
     58         20  C    CARTESIAN X    -5.953190     0.122377  KCAL/ANGSTROM
     59         20  C    CARTESIAN Y   -13.214970    -0.222059  KCAL/ANGSTROM
     60         20  C    CARTESIAN Z    -2.960626     0.334669  KCAL/ANGSTROM
     61         21  C    CARTESIAN X    -4.987910    -0.047991  KCAL/ANGSTROM
     62         21  C    CARTESIAN Y   -13.769590     0.340770  KCAL/ANGSTROM
     63         21  C    CARTESIAN Z    -2.035995     0.551816  KCAL/ANGSTROM
     64         22  C    CARTESIAN X    -4.230026     0.236308  KCAL/ANGSTROM
     65         22  C    CARTESIAN Y   -12.669440    -0.100963  KCAL/ANGSTROM
     66         22  C    CARTESIAN Z    -1.497860    -0.091190  KCAL/ANGSTROM
     67         23  C    CARTESIAN X     0.786150    -0.979932  KCAL/ANGSTROM
     68         23  C    CARTESIAN Y     3.320239    -0.096965  KCAL/ANGSTROM
     69         23  C    CARTESIAN Z    -0.366701     0.395848  KCAL/ANGSTROM
     70         24  C    CARTESIAN X     1.681460    -0.519903  KCAL/ANGSTROM
     71         24  C    CARTESIAN Y     4.437125     0.167243  KCAL/ANGSTROM
     72         24  C    CARTESIAN Z    -0.530499     0.215211  KCAL/ANGSTROM
     73         25  C    CARTESIAN X     2.960697     0.188066  KCAL/ANGSTROM
     74         25  C    CARTESIAN Y     3.896338     0.793099  KCAL/ANGSTROM
     75         25  C    CARTESIAN Z    -0.949477     0.610713  KCAL/ANGSTROM
     76         26  C    CARTESIAN X     2.784237     0.512624  KCAL/ANGSTROM
     77         26  C    CARTESIAN Y     2.475084     0.521845  KCAL/ANGSTROM
     78         26  C    CARTESIAN Z    -1.085237     0.525398  KCAL/ANGSTROM
     79         27  C    CARTESIAN X    -0.522470     0.161678  KCAL/ANGSTROM
     80         27  C    CARTESIAN Y     3.472060    -0.382295  KCAL/ANGSTROM
     81         27  C    CARTESIAN Z     0.056945    -0.444916  KCAL/ANGSTROM
     82         28  C    CARTESIAN X    -0.996040     0.039229  KCAL/ANGSTROM
     83         28  C    CARTESIAN Y     4.755354     0.471188  KCAL/ANGSTROM
     84         28  C    CARTESIAN Z     0.379717     0.229344  KCAL/ANGSTROM
     85         29  C    CARTESIAN X    -0.127181    -0.110288  KCAL/ANGSTROM
     86         29  C    CARTESIAN Y     5.840138    -0.252791  KCAL/ANGSTROM
     87         29  C    CARTESIAN Z     0.324261    -0.177687  KCAL/ANGSTROM
     88         30  C    CARTESIAN X     1.170207    -0.795846  KCAL/ANGSTROM
     89         30  C    CARTESIAN Y     5.683851    -0.026455  KCAL/ANGSTROM
     90         30  C    CARTESIAN Z    -0.263313     0.078319  KCAL/ANGSTROM
     91         31  C    CARTESIAN X     4.221858     0.314052  KCAL/ANGSTROM
     92         31  C    CARTESIAN Y     4.390345     0.047502  KCAL/ANGSTROM
     93         31  C    CARTESIAN Z    -1.205159     0.635246  KCAL/ANGSTROM
     94         32  C    CARTESIAN X     5.296035    -0.031731  KCAL/ANGSTROM
     95         32  C    CARTESIAN Y     3.534051    -0.332061  KCAL/ANGSTROM
     96         32  C    CARTESIAN Z    -1.567878     0.368329  KCAL/ANGSTROM
     97         33  C    CARTESIAN X     5.040693     0.317361  KCAL/ANGSTROM
     98         33  C    CARTESIAN Y     2.191390     0.031582  KCAL/ANGSTROM
     99         33  C    CARTESIAN Z    -1.882995    -0.137156  KCAL/ANGSTROM
    100         34  C    CARTESIAN X     3.779016     0.858377  KCAL/ANGSTROM
    101         34  C    CARTESIAN Y     1.652750     0.043938  KCAL/ANGSTROM
    102         34  C    CARTESIAN Z    -1.593257     0.678712  KCAL/ANGSTROM
    103         35  C    CARTESIAN X    -4.619841     0.216816  KCAL/ANGSTROM
    104         35  C    CARTESIAN Y   -15.030630     0.530309  KCAL/ANGSTROM
    105         35  C    CARTESIAN Z    -1.634417     0.192034  KCAL/ANGSTROM
    106         36  C    CARTESIAN X    -3.670839     0.448628  KCAL/ANGSTROM
    107         36  C    CARTESIAN Y   -15.220788     0.348646  KCAL/ANGSTROM
    108         36  C    CARTESIAN Z    -0.594072     0.281494  KCAL/ANGSTROM
    109         37  C    CARTESIAN X    -2.876032    -0.356688  KCAL/ANGSTROM
    110         37  C    CARTESIAN Y   -14.158702    -0.046082  KCAL/ANGSTROM
    111         37  C    CARTESIAN Z    -0.167617    -0.285494  KCAL/ANGSTROM
    112         38  C    CARTESIAN X    -3.187926     0.358672  KCAL/ANGSTROM
    113         38  C    CARTESIAN Y   -12.857640    -0.716828  KCAL/ANGSTROM
    114         38  C    CARTESIAN Z    -0.601602     0.065549  KCAL/ANGSTROM
    115         39  C    CARTESIAN X    -6.393712     0.101131  KCAL/ANGSTROM
    116         39  C    CARTESIAN Y   -10.976808    -0.013694  KCAL/ANGSTROM
    117         39  C    CARTESIAN Z    -3.897456     0.188314  KCAL/ANGSTROM
    118         40  C    CARTESIAN X    -7.380049     0.163188  KCAL/ANGSTROM
    119         40  C    CARTESIAN Y   -11.524640    -0.059557  KCAL/ANGSTROM
    120         40  C    CARTESIAN Z    -4.731475    -0.238836  KCAL/ANGSTROM
    121         41  C    CARTESIAN X    -7.750738     0.249475  KCAL/ANGSTROM
    122         41  C    CARTESIAN Y   -12.869301     0.213411  KCAL/ANGSTROM
    123         41  C    CARTESIAN Z    -4.580694    -0.148151  KCAL/ANGSTROM
    124         42  C    CARTESIAN X    -6.965278    -0.145507  KCAL/ANGSTROM
    125         42  C    CARTESIAN Y   -13.713045    -0.123388  KCAL/ANGSTROM
    126         42  C    CARTESIAN Z    -3.750353     0.079062  KCAL/ANGSTROM
    127         43  C    CARTESIAN X    -4.923884     0.179787  KCAL/ANGSTROM
    128         43  C    CARTESIAN Y   -16.347892     0.302239  KCAL/ANGSTROM
    129         43  C    CARTESIAN Z    -2.278645    -0.314675  KCAL/ANGSTROM
    130         44  C    CARTESIAN X    -3.753519     0.096579  KCAL/ANGSTROM
    131         44  C    CARTESIAN Y   -17.241135    -0.045847  KCAL/ANGSTROM
    132         44  C    CARTESIAN Z    -1.744299    -0.219405  KCAL/ANGSTROM
    133         45  C    CARTESIAN X    -3.616073     0.237997  KCAL/ANGSTROM
    134         45  C    CARTESIAN Y   -16.684818     0.739944  KCAL/ANGSTROM
    135         45  C    CARTESIAN Z    -0.330347     0.537858  KCAL/ANGSTROM
    136         46  C    CARTESIAN X    -8.745906    -0.055695  KCAL/ANGSTROM
    137         46  C    CARTESIAN Y   -13.678294     0.241687  KCAL/ANGSTROM
    138         46  C    CARTESIAN Z    -5.282660    -0.330765  KCAL/ANGSTROM
    139         47  C    CARTESIAN X    -8.413544    -0.266258  KCAL/ANGSTROM
    140         47  C    CARTESIAN Y   -15.150547    -0.161711  KCAL/ANGSTROM
    141         47  C    CARTESIAN Z    -5.030406    -0.173050  KCAL/ANGSTROM
    142         48  C    CARTESIAN X    -7.331941     1.160841  KCAL/ANGSTROM
    143         48  C    CARTESIAN Y   -15.145986    -0.526753  KCAL/ANGSTROM
    144         48  C    CARTESIAN Z    -3.919841    -0.108158  KCAL/ANGSTROM
    145         49  C    CARTESIAN X    -0.114050    -0.630579  KCAL/ANGSTROM
    146         49  C    CARTESIAN Y     7.232761    -0.085988  KCAL/ANGSTROM
    147         49  C    CARTESIAN Z     0.822273     0.008758  KCAL/ANGSTROM
    148         50  C    CARTESIAN X     0.609453    -0.615620  KCAL/ANGSTROM
    149         50  C    CARTESIAN Y     7.985065    -0.159404  KCAL/ANGSTROM
    150         50  C    CARTESIAN Z    -0.295039    -0.134738  KCAL/ANGSTROM
    151         51  C    CARTESIAN X     1.798981     1.001849  KCAL/ANGSTROM
    152         51  C    CARTESIAN Y     7.018669     0.020718  KCAL/ANGSTROM
    153         51  C    CARTESIAN Z    -0.554574    -0.475656  KCAL/ANGSTROM
    154         52  C    CARTESIAN X     4.645738    -0.238019  KCAL/ANGSTROM
    155         52  C    CARTESIAN Y     5.819986     0.344750  KCAL/ANGSTROM
    156         52  C    CARTESIAN Z    -1.217999    -0.188003  KCAL/ANGSTROM
    157         53  C    CARTESIAN X     6.126533     0.590260  KCAL/ANGSTROM
    158         53  C    CARTESIAN Y     5.800053     0.276377  KCAL/ANGSTROM
    159         53  C    CARTESIAN Z    -1.693564    -0.103017  KCAL/ANGSTROM
    160         54  C    CARTESIAN X     6.519153     0.453636  KCAL/ANGSTROM
    161         54  C    CARTESIAN Y     4.325371    -0.001549  KCAL/ANGSTROM
    162         54  C    CARTESIAN Z    -1.691905    -0.643909  KCAL/ANGSTROM
    163         55  C    CARTESIAN X    -0.253216    -0.514046  KCAL/ANGSTROM
    164         55  C    CARTESIAN Y     7.662011     0.306992  KCAL/ANGSTROM
    165         55  C    CARTESIAN Z     2.098003    -0.604058  KCAL/ANGSTROM
    166         56  C    CARTESIAN X     7.811986     0.370843  KCAL/ANGSTROM
    167         56  C    CARTESIAN Y     3.937020    -0.822947  KCAL/ANGSTROM
    168         56  C    CARTESIAN Z    -1.704176     1.337056  KCAL/ANGSTROM
    169         57  C    CARTESIAN X    -3.609008    -0.189829  KCAL/ANGSTROM
    170         57  C    CARTESIAN Y   -17.281903     0.457122  KCAL/ANGSTROM
    171         57  C    CARTESIAN Z     0.870219     0.225678  KCAL/ANGSTROM
    172         58  C    CARTESIAN X    -9.842316     0.019460  KCAL/ANGSTROM
    173         58  C    CARTESIAN Y   -13.350494     0.432091  KCAL/ANGSTROM
    174         58  C    CARTESIAN Z    -6.002598    -0.096725  KCAL/ANGSTROM
    175         59  C    CARTESIAN X     6.977107    -0.356784  KCAL/ANGSTROM
    176         59  C    CARTESIAN Y     6.619464     0.557807  KCAL/ANGSTROM
    177         59  C    CARTESIAN Z    -0.721921     0.341128  KCAL/ANGSTROM
    178         60  C    CARTESIAN X     0.938779    -0.600096  KCAL/ANGSTROM
    179         60  C    CARTESIAN Y     9.459333     0.984898  KCAL/ANGSTROM
    180         60  C    CARTESIAN Z    -0.139035     0.177509  KCAL/ANGSTROM
    181         61  C    CARTESIAN X    -3.998970     0.821891  KCAL/ANGSTROM
    182         61  C    CARTESIAN Y   -18.701334    -0.068324  KCAL/ANGSTROM
    183         61  C    CARTESIAN Z    -2.039922     0.483051  KCAL/ANGSTROM
    184         62  C    CARTESIAN X    -9.638830     0.444057  KCAL/ANGSTROM
    185         62  C    CARTESIAN Y   -15.927251    -1.848278  KCAL/ANGSTROM
    186         62  C    CARTESIAN Z    -4.545180     0.203444  KCAL/ANGSTROM
    187         63  C    CARTESIAN X    -1.310447    -0.841755  KCAL/ANGSTROM
    188         63  C    CARTESIAN Y     7.403570    -0.221258  KCAL/ANGSTROM
    189         63  C    CARTESIAN Z     3.084572     0.084216  KCAL/ANGSTROM
    190         64  C    CARTESIAN X    -0.850013    -0.834328  KCAL/ANGSTROM
    191         64  C    CARTESIAN Y     7.744713     0.251686  KCAL/ANGSTROM
    192         64  C    CARTESIAN Z     4.391758    -0.340605  KCAL/ANGSTROM
    193         65  C    CARTESIAN X     0.474319     0.080477  KCAL/ANGSTROM
    194         65  C    CARTESIAN Y     8.338168    -1.237510  KCAL/ANGSTROM
    195         65  C    CARTESIAN Z     4.249618    -0.081045  KCAL/ANGSTROM
    196         66  C    CARTESIAN X     0.819444     0.204363  KCAL/ANGSTROM
    197         66  C    CARTESIAN Y     8.342157    -0.123156  KCAL/ANGSTROM
    198         66  C    CARTESIAN Z     2.863560     0.139168  KCAL/ANGSTROM
    199         67  C    CARTESIAN X     8.938477     0.558161  KCAL/ANGSTROM
    200         67  C    CARTESIAN Y     4.676630    -0.088852  KCAL/ANGSTROM
    201         67  C    CARTESIAN Z    -2.307405    -0.300384  KCAL/ANGSTROM
    202         68  C    CARTESIAN X    10.161230     0.904539  KCAL/ANGSTROM
    203         68  C    CARTESIAN Y     4.004721     0.397552  KCAL/ANGSTROM
    204         68  C    CARTESIAN Z    -2.011927     0.222926  KCAL/ANGSTROM
    205         69  C    CARTESIAN X     9.838651    -0.069907  KCAL/ANGSTROM
    206         69  C    CARTESIAN Y     2.819579     0.620131  KCAL/ANGSTROM
    207         69  C    CARTESIAN Z    -1.223507    -0.021359  KCAL/ANGSTROM
    208         70  C    CARTESIAN X     8.423565    -0.196846  KCAL/ANGSTROM
    209         70  C    CARTESIAN Y     2.772473     0.030230  KCAL/ANGSTROM
    210         70  C    CARTESIAN Z    -1.049184    -0.038070  KCAL/ANGSTROM
    211         71  C    CARTESIAN X     1.337956     1.198831  KCAL/ANGSTROM
    212         71  C    CARTESIAN Y     8.833755     0.385487  KCAL/ANGSTROM
    213         71  C    CARTESIAN Z     5.207863    -0.798099  KCAL/ANGSTROM
    214         72  C    CARTESIAN X     2.585586    -0.409843  KCAL/ANGSTROM
    215         72  C    CARTESIAN Y     9.320676    -0.377321  KCAL/ANGSTROM
    216         72  C    CARTESIAN Z     4.803200    -1.502956  KCAL/ANGSTROM
    217         73  C    CARTESIAN X     2.967932    -1.808090  KCAL/ANGSTROM
    218         73  C    CARTESIAN Y     9.244389    -0.190271  KCAL/ANGSTROM
    219         73  C    CARTESIAN Z     3.470669     0.593196  KCAL/ANGSTROM
    220         74  C    CARTESIAN X     2.100932     1.108210  KCAL/ANGSTROM
    221         74  C    CARTESIAN Y     8.725653    -0.037571  KCAL/ANGSTROM
    222         74  C    CARTESIAN Z     2.503435    -0.652786  KCAL/ANGSTROM
    223         75  C    CARTESIAN X    -2.647147     0.926559  KCAL/ANGSTROM
    224         75  C    CARTESIAN Y     7.098764     0.176678  KCAL/ANGSTROM
    225         75  C    CARTESIAN Z     2.914039    -0.321106  KCAL/ANGSTROM
    226         76  C    CARTESIAN X    -3.457047     0.352015  KCAL/ANGSTROM
    227         76  C    CARTESIAN Y     6.910403     0.402200  KCAL/ANGSTROM
    228         76  C    CARTESIAN Z     4.041239     0.499615  KCAL/ANGSTROM
    229         77  C    CARTESIAN X    -2.949837    -0.264291  KCAL/ANGSTROM
    230         77  C    CARTESIAN Y     7.082987    -1.336612  KCAL/ANGSTROM
    231         77  C    CARTESIAN Z     5.324542     0.424783  KCAL/ANGSTROM
    232         78  C    CARTESIAN X    -1.641883    -0.471343  KCAL/ANGSTROM
    233         78  C    CARTESIAN Y     7.550491    -0.317697  KCAL/ANGSTROM
    234         78  C    CARTESIAN Z     5.508027     0.734858  KCAL/ANGSTROM
    235         79  C    CARTESIAN X     8.948514     0.072403  KCAL/ANGSTROM
    236         79  C    CARTESIAN Y     5.778478     0.030518  KCAL/ANGSTROM
    237         79  C    CARTESIAN Z    -3.145414    -0.032371  KCAL/ANGSTROM
    238         80  C    CARTESIAN X    10.174684    -0.385457  KCAL/ANGSTROM
    239         80  C    CARTESIAN Y     6.260205     0.065728  KCAL/ANGSTROM
    240         80  C    CARTESIAN Z    -3.618078     0.107228  KCAL/ANGSTROM
    241         81  C    CARTESIAN X    11.369497    -0.361377  KCAL/ANGSTROM
    242         81  C    CARTESIAN Y     5.638500     0.573705  KCAL/ANGSTROM
    243         81  C    CARTESIAN Z    -3.271176     0.262168  KCAL/ANGSTROM
    244         82  C    CARTESIAN X    11.370773     0.172635  KCAL/ANGSTROM
    245         82  C    CARTESIAN Y     4.486995     0.432634  KCAL/ANGSTROM
    246         82  C    CARTESIAN Z    -2.474074     0.190450  KCAL/ANGSTROM
    247         83  C    CARTESIAN X    10.657141    -0.049284  KCAL/ANGSTROM
    248         83  C    CARTESIAN Y     1.855853     0.100873  KCAL/ANGSTROM
    249         83  C    CARTESIAN Z    -0.667375     0.017396  KCAL/ANGSTROM
    250         84  C    CARTESIAN X    10.067702     0.143617  KCAL/ANGSTROM
    251         84  C    CARTESIAN Y     0.840153     0.513219  KCAL/ANGSTROM
    252         84  C    CARTESIAN Z     0.094940    -0.364962  KCAL/ANGSTROM
    253         85  C    CARTESIAN X     8.693818     0.144675  KCAL/ANGSTROM
    254         85  C    CARTESIAN Y     0.820985    -0.454452  KCAL/ANGSTROM
    255         85  C    CARTESIAN Z     0.314414     0.127669  KCAL/ANGSTROM
    256         86  C    CARTESIAN X     7.861596    -0.176238  KCAL/ANGSTROM
    257         86  C    CARTESIAN Y     1.800467     0.906890  KCAL/ANGSTROM
    258         86  C    CARTESIAN Z    -0.241141    -1.194365  KCAL/ANGSTROM
    259         87  C    CARTESIAN X   -10.437313     0.072316  KCAL/ANGSTROM
    260         87  C    CARTESIAN Y   -14.189221    -0.566269  KCAL/ANGSTROM
    261         87  C    CARTESIAN Z    -7.066767    -0.287151  KCAL/ANGSTROM
    262         88  C    CARTESIAN X   -11.674515     0.038752  KCAL/ANGSTROM
    263         88  C    CARTESIAN Y   -13.618470    -0.361629  KCAL/ANGSTROM
    264         88  C    CARTESIAN Z    -7.484378     0.336729  KCAL/ANGSTROM
    265         89  C    CARTESIAN X   -11.894216    -0.126326  KCAL/ANGSTROM
    266         89  C    CARTESIAN Y   -12.404343    -0.355869  KCAL/ANGSTROM
    267         89  C    CARTESIAN Z    -6.705881    -0.111916  KCAL/ANGSTROM
    268         90  C    CARTESIAN X   -10.780488    -0.240687  KCAL/ANGSTROM
    269         90  C    CARTESIAN Y   -12.230356    -0.077890  KCAL/ANGSTROM
    270         90  C    CARTESIAN Z    -5.829973    -0.386928  KCAL/ANGSTROM
    271         91  C    CARTESIAN X    -3.456935     0.214834  KCAL/ANGSTROM
    272         91  C    CARTESIAN Y   -16.573151     0.087666  KCAL/ANGSTROM
    273         91  C    CARTESIAN Z     2.164416     0.299902  KCAL/ANGSTROM
    274         92  C    CARTESIAN X    -2.777189     0.034036  KCAL/ANGSTROM
    275         92  C    CARTESIAN Y   -17.431769    -0.180813  KCAL/ANGSTROM
    276         92  C    CARTESIAN Z     3.078258     0.132016  KCAL/ANGSTROM
    277         93  C    CARTESIAN X    -2.740114     0.048249  KCAL/ANGSTROM
    278         93  C    CARTESIAN Y   -18.765774     0.443961  KCAL/ANGSTROM
    279         93  C    CARTESIAN Z     2.484788    -0.259102  KCAL/ANGSTROM
    280         94  C    CARTESIAN X    -3.445816    -0.332797  KCAL/ANGSTROM
    281         94  C    CARTESIAN Y   -18.708486     0.129622  KCAL/ANGSTROM
    282         94  C    CARTESIAN Z     1.239919     0.190937  KCAL/ANGSTROM
    283         95  C    CARTESIAN X    -2.295530    -0.124813  KCAL/ANGSTROM
    284         95  C    CARTESIAN Y   -19.961850    -0.212498  KCAL/ANGSTROM
    285         95  C    CARTESIAN Z     3.008537    -0.419583  KCAL/ANGSTROM
    286         96  C    CARTESIAN X    -2.636274     0.019295  KCAL/ANGSTROM
    287         96  C    CARTESIAN Y   -21.149918    -0.110849  KCAL/ANGSTROM
    288         96  C    CARTESIAN Z     2.345456    -0.550489  KCAL/ANGSTROM
    289         97  C    CARTESIAN X    -3.468920    -0.395167  KCAL/ANGSTROM
    290         97  C    CARTESIAN Y   -21.113723    -0.230495  KCAL/ANGSTROM
    291         97  C    CARTESIAN Z     1.236264    -0.243721  KCAL/ANGSTROM
    292         98  C    CARTESIAN X    -3.899371    -0.238836  KCAL/ANGSTROM
    293         98  C    CARTESIAN Y   -19.891878    -0.080038  KCAL/ANGSTROM
    294         98  C    CARTESIAN Z     0.695111    -0.137448  KCAL/ANGSTROM
    295         99  C    CARTESIAN X    -3.897803     0.077395  KCAL/ANGSTROM
    296         99  C    CARTESIAN Y   -15.333854     0.185132  KCAL/ANGSTROM
    297         99  C    CARTESIAN Z     2.583120     0.582094  KCAL/ANGSTROM
    298        100  C    CARTESIAN X    -3.556111    -0.288629  KCAL/ANGSTROM
    299        100  C    CARTESIAN Y   -14.900661     0.020587  KCAL/ANGSTROM
    300        100  C    CARTESIAN Z     3.873565     0.782792  KCAL/ANGSTROM
    301        101  C    CARTESIAN X    -2.796188    -0.164757  KCAL/ANGSTROM
    302        101  C    CARTESIAN Y   -15.699273     0.055690  KCAL/ANGSTROM
    303        101  C    CARTESIAN Z     4.719731    -0.113269  KCAL/ANGSTROM
    304        102  C    CARTESIAN X    -2.412946     0.539665  KCAL/ANGSTROM
    305        102  C    CARTESIAN Y   -16.992293    -0.599185  KCAL/ANGSTROM
    306        102  C    CARTESIAN Z     4.334611     0.605244  KCAL/ANGSTROM
    307        103  C    CARTESIAN X    -9.946723     0.025371  KCAL/ANGSTROM
    308        103  C    CARTESIAN Y   -15.302821    -0.134064  KCAL/ANGSTROM
    309        103  C    CARTESIAN Z    -7.728600    -0.032120  KCAL/ANGSTROM
    310        104  C    CARTESIAN X   -10.717454     0.205469  KCAL/ANGSTROM
    311        104  C    CARTESIAN Y   -15.892394    -0.195071  KCAL/ANGSTROM
    312        104  C    CARTESIAN Z    -8.737279     0.089252  KCAL/ANGSTROM
    313        105  C    CARTESIAN X   -11.952792     0.190109  KCAL/ANGSTROM
    314        105  C    CARTESIAN Y   -15.363347    -0.543362  KCAL/ANGSTROM
    315        105  C    CARTESIAN Z    -9.096504     0.132204  KCAL/ANGSTROM
    316        106  C    CARTESIAN X   -12.436793    -0.175859  KCAL/ANGSTROM
    317        106  C    CARTESIAN Y   -14.204904    -0.716260  KCAL/ANGSTROM
    318        106  C    CARTESIAN Z    -8.477115    -0.113083  KCAL/ANGSTROM
    319        107  C    CARTESIAN X   -12.962036    -0.421859  KCAL/ANGSTROM
    320        107  C    CARTESIAN Y   -11.527559    -0.115262  KCAL/ANGSTROM
    321        107  C    CARTESIAN Z    -6.694410    -0.131914  KCAL/ANGSTROM
    322        108  C    CARTESIAN X   -12.946616    -0.167029  KCAL/ANGSTROM
    323        108  C    CARTESIAN Y   -10.467399     0.578891  KCAL/ANGSTROM
    324        108  C    CARTESIAN Z    -5.779154     0.526202  KCAL/ANGSTROM
    325        109  C    CARTESIAN X   -11.887624    -0.582882  KCAL/ANGSTROM
    326        109  C    CARTESIAN Y   -10.317894     0.655457  KCAL/ANGSTROM
    327        109  C    CARTESIAN Z    -4.889675    -0.555628  KCAL/ANGSTROM
    328        110  C    CARTESIAN X   -10.805734    -0.746420  KCAL/ANGSTROM
    329        110  C    CARTESIAN Y   -11.207777     0.528797  KCAL/ANGSTROM
    330        110  C    CARTESIAN Z    -4.897479    -0.381130  KCAL/ANGSTROM
    331        111  C    CARTESIAN X    -7.320431    -0.546221  KCAL/ANGSTROM
    332        111  C    CARTESIAN Y     8.234597     0.359849  KCAL/ANGSTROM
    333        111  C    CARTESIAN Z    -1.717969    -0.304536  KCAL/ANGSTROM
    334        112  C    CARTESIAN X    -6.709414     0.297939  KCAL/ANGSTROM
[...]
   92          C          -0.033916        4.0339     1.06816     2.96576
   93          C          -0.025506        4.0255     1.06988     2.95563
   94          C           0.006598        3.9934     1.07262     2.92078
   95          C          -0.144176        4.1442     1.07972     3.06446
   96          C          -0.150854        4.1509     1.08172     3.06913
   97          C          -0.150113        4.1501     1.08240     3.06771
   98          C          -0.164154        4.1642     1.08124     3.08291
   99          C          -0.150035        4.1500     1.08284     3.06720
  100          C          -0.147709        4.1477     1.08305     3.06466
  101          C          -0.152936        4.1529     1.08174     3.07120
  102          C          -0.147691        4.1477     1.07928     3.06841
  103          C          -0.169957        4.1700     1.07976     3.09020
  104          C          -0.144615        4.1446     1.08239     3.06223
  105          C          -0.156931        4.1569     1.08117     3.07576
  106          C          -0.139345        4.1393     1.08024     3.05911
  107          C          -0.142366        4.1424     1.07956     3.06281
  108          C          -0.155209        4.1552     1.08126     3.07395
  109          C          -0.144617        4.1446     1.08246     3.06216
  110          C          -0.151387        4.1514     1.08256     3.06883
  111          C          -0.442051        4.4421     1.05214     3.38991
  112          C          -0.253931        4.2539     1.05548     3.19845
  113          C          -0.272422        4.2724     1.06027     3.21215
  114          C          -0.274409        4.2744     1.06012     3.21428
  115          C          -0.259023        4.2590     1.06019     3.19884
  116          C          -0.297750        4.2978     1.05777     3.23998
  117          C          -0.441642        4.4416     1.05217     3.38947
  118          C          -0.252902        4.2529     1.05528     3.19762
  119          C          -0.273204        4.2732     1.06039     3.21281
  120          C          -0.276984        4.2770     1.06074     3.21624
  121          C          -0.251582        4.2516     1.05945     3.19213
  122          C          -0.303353        4.3034     1.05825     3.24511
  123          C          -0.441993        4.4420     1.05268     3.38932
  124          C          -0.247664        4.2477     1.05549     3.19217
  125          C          -0.272504        4.2725     1.06067     3.21183
  126          C          -0.279246        4.2792     1.06142     3.21783
  127          C          -0.257200        4.2572     1.05942     3.19778
  128          C          -0.297573        4.2976     1.05904     3.23853
  129          C          -0.441775        4.4418     1.05229     3.38949
  130          C          -0.252039        4.2520     1.05563     3.19641
  131          C          -0.272725        4.2727     1.05986     3.21287
  132          C          -0.278968        4.2790     1.06087     3.21810
  133          C          -0.250053        4.2501     1.05901     3.19105
  134          C          -0.305149        4.3051     1.05840     3.24674
  135          H           0.175642        0.8244     0.82436
  136          H           0.162421        0.8376     0.83758
  137          H           0.163806        0.8362     0.83619
  138          H           0.178818        0.8212     0.82118
  139          H           0.163118        0.8369     0.83688
  140          H           0.176247        0.8238     0.82375
  141          H           0.177531        0.8225     0.82247
  142          H           0.163361        0.8366     0.83664
  143          H           0.173704        0.8263     0.82630
  144          H           0.177415        0.8226     0.82258
  145          H           0.172276        0.8277     0.82772
  146          H           0.176622        0.8234     0.82338
  147          H           0.151519        0.8485     0.84848
  148          H           0.163405        0.8366     0.83660
  149          H           0.151909        0.8481     0.84809
  150          H           0.146462        0.8535     0.85354
  151          H           0.154697        0.8453     0.84530
  152          H           0.169481        0.8305     0.83052
  153          H           0.154620        0.8454     0.84538
  154          H           0.163692        0.8363     0.83631
  155          H           0.155232        0.8448     0.84477
  156          H           0.169988        0.8300     0.83001
  157          H           0.152861        0.8471     0.84714
  158          H           0.145396        0.8546     0.85460
  159          H           0.160072        0.8399     0.83993
  160          H           0.143217        0.8568     0.85678
  161          H           0.159217        0.8408     0.84078
  162          H           0.148414        0.8516     0.85159
  163          H           0.168852        0.8311     0.83115
  164          H           0.143143        0.8569     0.85686
  165          H           0.158797        0.8412     0.84120
  166          H           0.145504        0.8545     0.85450
  167          H           0.150963        0.8490     0.84904
  168          H           0.158325        0.8417     0.84167
  169          H           0.142933        0.8571     0.85707
  170          H           0.160093        0.8399     0.83991
  171          H           0.153501        0.8465     0.84650
  172          H           0.147304        0.8527     0.85270
  173          H           0.145162        0.8548     0.85484
  174          H           0.158801        0.8412     0.84120
  175          H           0.166304        0.8337     0.83370
  176          H           0.143639        0.8564     0.85636
  177          H           0.145396        0.8546     0.85460
  178          H           0.152067        0.8479     0.84793
  179          H           0.153333        0.8467     0.84667
  180          H           0.145020        0.8550     0.85498
  181          H           0.146837        0.8532     0.85316
  182          H           0.153233        0.8468     0.84677
  183          H           0.151479        0.8485     0.84852
  184          H           0.146002        0.8540     0.85400
  185          H           0.146479        0.8535     0.85352
  186          H           0.168060        0.8319     0.83194
  187          H           0.155075        0.8449     0.84493
  188          H           0.147723        0.8523     0.85228
  189          H           0.145823        0.8542     0.85418
  190          H           0.160519        0.8395     0.83948
  191          H           0.170281        0.8297     0.82972
  192          H           0.149562        0.8504     0.85044
  193          H           0.147156        0.8528     0.85284
  194          H           0.153388        0.8466     0.84661
  195          H           0.153244        0.8468     0.84676
  196          H           0.144970        0.8550     0.85503
  197          H           0.146981        0.8530     0.85302
  198          H           0.152844        0.8472     0.84716
  199          H           0.151448        0.8486     0.84855
  200          H           0.146210        0.8538     0.85379
  201          H           0.146167        0.8538     0.85383
  202          H           0.166747        0.8333     0.83325
  203          H           0.140676        0.8593     0.85932
  204          H           0.141802        0.8582     0.85820
  205          H           0.143541        0.8565     0.85646
  206          H           0.136170        0.8638     0.86383
  207          H           0.131567        0.8684     0.86843
  208          H           0.133618        0.8664     0.86638
  209          H           0.140577        0.8594     0.85942
  210          H           0.138367        0.8616     0.86163
  211          H           0.134287        0.8657     0.86571
  212          H           0.140763        0.8592     0.85924
  213          H           0.145092        0.8549     0.85491
  214          H           0.150966        0.8490     0.84903
  215          H           0.172370        0.8276     0.82763
  216          H           0.139771        0.8602     0.86023
  217          H           0.140713        0.8593     0.85929
  218          H           0.141070        0.8589     0.85893
  219          H           0.136444        0.8636     0.86356
  220          H           0.134240        0.8658     0.86576
  221          H           0.133952        0.8660     0.86605
  222          H           0.134925        0.8651     0.86508
  223          H           0.148323        0.8517     0.85168
  224          H           0.136774        0.8632     0.86323
  225          H           0.134488        0.8655     0.86551
  226          H           0.142269        0.8577     0.85773
  227          H           0.161545        0.8385     0.83845
  228          H           0.174912        0.8251     0.82509
  229          H           0.136063        0.8639     0.86394
  230          H           0.138801        0.8612     0.86120
  231          H           0.148289        0.8517     0.85171
  232          H           0.135044        0.8650     0.86496
  233          H           0.129907        0.8701     0.87009
  234          H           0.133271        0.8667     0.86673
  235          H           0.143994        0.8560     0.85601
  236          H           0.148004        0.8520     0.85200
  237          H           0.131866        0.8681     0.86813
  238          H           0.133871        0.8661     0.86613
  239          H           0.147665        0.8523     0.85234
  240          H           0.147383        0.8526     0.85262
  241          H           0.174629        0.8254     0.82537
  242          H           0.139762        0.8602     0.86024
  243          H           0.140501        0.8595     0.85950
  244          H           0.140850        0.8591     0.85915
  245          H           0.136631        0.8634     0.86337
  246          H           0.134305        0.8657     0.86569
  247          H           0.133675        0.8663     0.86632
  248          H           0.134229        0.8658     0.86577
  249          H           0.149963        0.8500     0.85004
  250          H           0.137041        0.8630     0.86296
  251          H           0.134563        0.8654     0.86544
  252          H           0.141102        0.8589     0.85890
  253          H           0.161571        0.8384     0.83843
  254          H           0.174315        0.8257     0.82569
 DIPOLE           X         Y         Z       TOTAL
 POINT-CHG.     0.241    -0.222    -2.478     2.500
 HYBRID        -0.013    -0.042     0.095     0.105
 SUM            0.228    -0.264    -2.383     2.408


          ATOMIC ORBITAL ELECTRON POPULATIONS

     Atom    s        px        py        pz   
    1  C   1.08334   1.02507   1.06363   1.04448
    2  C   1.08601   1.05780   0.96692   0.97954
    3  C   1.03822   0.99146   0.94812   1.03911
    4  C   1.08661   0.98627   1.04446   0.97207
    5  C   1.08273   1.09484   0.97988   1.05059
    6  C   1.05398   0.95129   0.82455   0.95952
    7  C   1.09201   0.98687   0.97294   0.99266
    8  N   1.52611   1.14894   1.10842   1.57213
    9  C   1.05606   1.00825   0.96247   1.02025
   10  C   1.05619   1.00852   0.96160   1.01885
   11  C   1.09194   0.98789   0.97188   0.99448
   12  C   1.03886   0.98154   0.94717   1.04615
   13  C   1.08628   1.08016   0.96741   0.95774
   14  C   1.08313   1.01459   1.06053   1.05423
   15  C   1.05347   0.94970   0.82260   0.96690
   16  C   1.08285   1.09503   0.98199   1.04680
   17  C   1.08595   1.00378   1.04150   0.96074
   18  N   1.52697   1.33450   1.10619   1.39246
   19  C   1.06544   0.87064   0.96383   0.88412
   20  C   1.04820   1.04648   0.97562   1.07296
   21  C   1.04889   1.03689   0.97718   1.05513
   22  C   1.06456   0.96063   0.82286   0.94997
   23  C   1.06435   0.95323   0.82909   0.95704
   24  C   1.04985   0.97784   0.97524   1.10760
   25  C   1.04861   0.98290   0.97396   1.13511
   26  C   1.06622   0.82181   0.96138   0.93241
   27  C   1.07248   1.02348   1.06533   1.13101
   28  C   1.06992   0.96556   0.94654   0.90629
   29  C   1.06420   1.00300   0.97939   1.08702
   30  C   1.07764   0.96417   0.95636   0.92689
   31  C   1.07641   0.94784   0.97100   0.89765
   32  C   1.05955   0.98427   0.98628   1.13043
   33  C   1.07725   0.95564   0.94658   0.88894
   34  C   1.07019   1.00085   1.10252   1.14045
   35  C   1.07401   0.95207   0.95632   0.94359
   36  C   1.06505   1.04534   0.97955   1.05015
   37  C   1.07389   0.94550   0.94771   0.92318
   38  C   1.07138   1.07483   1.06332   1.08980
   39  C   1.07004   1.07765   1.10115   1.06265
   40  C   1.07659   0.91785   0.94740   0.92744
   41  C   1.05916   1.03838   0.98524   1.07452
   42  C   1.07614   0.92496   0.97044   0.92212
   43  C   1.06752   1.09432   1.00736   1.12059
   44  C   1.06407   1.05302   0.97114   0.98997
   45  C   1.08562   0.93173   0.96182   0.96563
   46  C   1.08944   0.93923   0.97131   0.90369
   47  C   1.06583   0.98880   0.98886   1.04328
   48  C   1.06435   1.09802   1.03561   1.10516
   49  C   1.09557   0.91636   0.94281   0.95526
   50  C   1.06618   1.01787   0.95894   1.05392
   51  C   1.06521   1.07065   0.99778   1.15811
   52  C   1.06543   1.03801   1.03535   1.15898
   53  C   1.06515   0.96375   0.98367   1.07327
   54  C   1.08820   0.95614   0.97071   0.89382
   55  C   1.05983   0.99981   1.09336   0.96617
   56  C   1.05858   0.97351   1.02291   1.07303
   57  C   1.06238   1.07489   0.97202   0.97160
   58  C   1.05924   1.01311   1.02088   1.03785
   59  C   1.05594   1.14393   1.12526   1.12936
   60  C   1.05255   1.17509   1.03756   1.18966
   61  C   1.05369   1.17611   1.05422   1.17021
   62  C   1.05605   1.08589   1.13029   1.18027
   63  C   1.06935   0.96895   0.97830   0.96803
   64  C   1.06728   0.97546   1.00156   0.98595
   65  C   1.06793   0.97780   1.00489   0.98700
   66  C   1.07419   0.96801   0.96709   0.97185
   67  C   1.07208   0.96919   0.97116   0.97902
   68  C   1.06750   0.98315   0.98470   0.99740
   69  C   1.06687   0.98804   0.97910   0.99902
   70  C   1.06938   0.97674   0.96484   0.98794
   71  C   1.07974   0.99083   0.99591   1.07033
   72  C   1.08047   1.02440   1.02130   1.02983
   73  C   1.08222   1.06019   1.01123   0.99322
   74  C   1.07999   0.99163   1.02357   1.07731
   75  C   1.08129   0.99850   1.02124   1.07180
   76  C   1.08153   1.06619   1.01211   0.98529
   77  C   1.08142   1.01695   1.01112   1.04336
   78  C   1.07979   0.99424   1.00476   1.05961
   79  C   1.07950   1.05434   1.02157   1.01379
   80  C   1.08224   0.98497   1.05058   1.02717
   81  C   1.08121   1.05481   1.00529   1.01537
   82  C   1.08022   1.05110   1.00960   0.99829
   83  C   1.07922   1.07453   0.98998   0.99849
   84  C   1.08110   1.01735   1.03862   1.01831
   85  C   1.08253   0.99832   1.03911   1.02478
   86  C   1.08280   1.08503   0.98820   0.99205
   87  C   1.07287   0.97511   0.96809   0.97455
   88  C   1.06738   0.99178   0.98446   0.99135
   89  C   1.06715   0.99122   0.97931   0.99545
   90  C   1.06983   0.97550   0.96526   0.98485
   91  C   1.07340   0.98159   0.97992   0.96176
   92  C   1.06816   1.00440   0.97598   0.98538
   93  C   1.06988   0.99807   0.97070   0.98686
   94  C   1.07262   0.98395   0.95895   0.97788
   95  C   1.07972   1.02517   0.98092   1.05837
   96  C   1.08172   1.01033   1.05360   1.00520
   97  C   1.08240   1.00959   1.04945   1.00867
   98  C   1.08124   1.03967   0.97967   1.06357
   99  C   1.08284   1.02589   1.01880   1.02251
  100  C   1.08305   1.00582   1.06488   0.99396
  101  C   1.08174   1.00983   0.99537   1.06599
  102  C   1.07928   1.02685   1.02306   1.01850
  103  C   1.07976   1.06506   1.01596   1.00918
  104  C   1.08239   1.00086   1.05130   1.01006
  105  C   1.08117   1.01852   1.01065   1.04659
  106  C   1.08024   1.05831   1.00372   0.99709
  107  C   1.07956   1.04126   0.99234   1.02921
  108  C   1.08126   1.04575   1.03125   0.99696
  109  C   1.08246   0.98595   1.04312   1.03308
  110  C   1.08256   1.04499   0.99167   1.03218
  111  C   1.05214   1.14913   1.11772   1.12307
  112  C   1.05548   1.01546   1.09155   1.09144
  113  C   1.06027   1.01551   1.09846   1.09818
  114  C   1.06012   1.01230   1.09953   1.10245
  115  C   1.06019   1.00380   1.10064   1.09440
  116  C   1.05777   0.99422   1.12402   1.12174
  117  C   1.05217   1.16983   1.05931   1.16033
  118  C   1.05528   1.06916   0.99399   1.13447
  119  C   1.06039   1.06815   1.00859   1.13607
  120  C   1.06074   1.07520   1.00528   1.13577
  121  C   1.05945   1.06944   0.99006   1.13263
  122  C   1.05825   1.12874   1.01433   1.10204
  123  C   1.05268   1.17390   1.05400   1.16141
  124  C   1.05549   1.13237   0.99092   1.06889
  125  C   1.06067   1.14133   1.00507   1.06544
  126  C   1.06142   1.13314   1.01174   1.07294
  127  C   1.05942   1.08345   1.05529   1.05903
  128  C   1.05904   1.01536   1.10960   1.11357
  129  C   1.05229   1.16684   1.05778   1.16487
  130  C   1.05563   1.11242   1.00259   1.08140
  131  C   1.05986   1.11000   1.02184   1.08103
  132  C   1.06087   1.12252   1.01736   1.07822
  133  C   1.05901   1.10979   1.00221   1.07905
  134  C   1.05840   1.16903   1.02403   1.05368
  135  H   0.82436
  136  H   0.83758
  137  H   0.83619
  138  H   0.82118
  139  H   0.83688
  140  H   0.82375
  141  H   0.82247
  142  H   0.83664
  143  H   0.82630
  144  H   0.82258
  145  H   0.82772
  146  H   0.82338
  147  H   0.84848
  148  H   0.83660
  149  H   0.84809
  150  H   0.85354
  151  H   0.84530
  152  H   0.83052
  153  H   0.84538
  154  H   0.83631
  155  H   0.84477
  156  H   0.83001
  157  H   0.84714
  158  H   0.85460
  159  H   0.83993
  160  H   0.85678
  161  H   0.84078
  162  H   0.85159
  163  H   0.83115
  164  H   0.85686
  165  H   0.84120
  166  H   0.85450
  167  H   0.84904
  168  H   0.84167
  169  H   0.85707
  170  H   0.83991
  171  H   0.84650
  172  H   0.85270
  173  H   0.85484
  174  H   0.84120
  175  H   0.83370
  176  H   0.85636
  177  H   0.85460
  178  H   0.84793
  179  H   0.84667
  180  H   0.85498
  181  H   0.85316
  182  H   0.84677
  183  H   0.84852
  184  H   0.85400
  185  H   0.85352
  186  H   0.83194
  187  H   0.84493
  188  H   0.85228
  189  H   0.85418
  190  H   0.83948
  191  H   0.82972
  192  H   0.85044
  193  H   0.85284
  194  H   0.84661
  195  H   0.84676
  196  H   0.85503
  197  H   0.85302
  198  H   0.84716
  199  H   0.84855
  200  H   0.85379
  201  H   0.85383
  202  H   0.83325
  203  H   0.85932
  204  H   0.85820
  205  H   0.85646
  206  H   0.86383
  207  H   0.86843
  208  H   0.86638
  209  H   0.85942
  210  H   0.86163
  211  H   0.86571
  212  H   0.85924
  213  H   0.85491
  214  H   0.84903
  215  H   0.82763
  216  H   0.86023
  217  H   0.85929
  218  H   0.85893
  219  H   0.86356
  220  H   0.86576
  221  H   0.86605
  222  H   0.86508
  223  H   0.85168
  224  H   0.86323
  225  H   0.86551
  226  H   0.85773
  227  H   0.83845
  228  H   0.82509
  229  H   0.86394
  230  H   0.86120
  231  H   0.85171
  232  H   0.86496
  233  H   0.87009
  234  H   0.86673
  235  H   0.85601
  236  H   0.85200
  237  H   0.86813
  238  H   0.86613
  239  H   0.85234
  240  H   0.85262
  241  H   0.82537
  242  H   0.86024
  243  H   0.85950
  244  H   0.85915
  245  H   0.86337
  246  H   0.86569
  247  H   0.86632
  248  H   0.86577
  249  H   0.85004
  250  H   0.86296
  251  H   0.86544
  252  H   0.85890
  253  H   0.83843
  254  H   0.82569

 **********************
 *                    *
 * JOB ENDED NORMALLY *
 *                    *
 **********************



 TOTAL JOB TIME:           229.79 SECONDS

 == MOPAC DONE ==
