 *******************************************************************************
 ** Site#: 9602  E-mail support: MrMOPAC@OpenMOPAC.net  Version 16.035L 64BITS**
 *******************************************************************************
 ** Cite this program as: MOPAC2016, Version: 16.035L, James J. P. Stewart,   **
 ** Stewart Computational Chemistry, web-site: HTTP://OpenMOPAC.net.          **
 *******************************************************************************
 **                                                                           **
 **                                MOPAC2016                                  **
 **                                                                           **
 *******************************************************************************

                              PM7 CALCULATION RESULTS


 *******************************************************************************
 *  CALCULATION DONE:                                Fri Apr 28 02:48:06 2017  *
 *  PM7        - The PM7 Hamiltonian to be used
 *
 *
 *
 *                 CHARGE ON SYSTEM = 0
 *
 *
 *
 *  BFGS       - USE THE BFGS GEOMETRY OPTIMIZER
 *  T=         - A TIME OF 172800.0 SECONDS REQUESTED
 *  DUMP=N     - RESTART FILE WRITTEN EVERY  7200.000 SECONDS
 *******************************************************************************
PM7 BFGS CHARGE=0
 chassi-I-1-cd.xyz

   ATOM   CHEMICAL          X               Y               Z
  NUMBER   SYMBOL      (ANGSTROMS)     (ANGSTROMS)     (ANGSTROMS)
 
     1       C         -3.54118000  *  -5.77816000  *  -0.69255000  *
     2       C         -3.23442000  *  -4.45119000  *  -0.76022000  *
     3       C         -2.37534000  *  -3.92725000  *   0.15388000  *
     4       C         -1.80727000  *  -4.67080000  *   1.14633000  *
     5       C         -2.14756000  *  -5.99855000  *   1.24931000  *
     6       C         -3.06892000  *  -6.62973000  *   0.35433000  *
     7       C         -2.13120000  *  -2.59340000  *   0.06350000  *
     8       N         -3.39686000  *  -8.07556000  *   0.37814000  *
     9       C         -1.92000000  *  -1.39990000  *   0.06350000  *
    10       C         -1.70880000  *  -0.20640000  *   0.06350000  *
    11       C         -1.48995000  *   0.94984000  *   0.09770000  *
    12       C         -1.19386000  *   2.30753000  *   0.19486000  *
    13       C         -0.22088000  *   2.78801000  *   1.06476000  *
    14       C          0.02918000  *   4.15334000  *   1.09746000  *
    15       C         -0.67141000  *   5.02793000  *   0.24062000  *
    16       C         -1.63201000  *   4.48955000  *  -0.64037000  *
    17       C         -1.90234000  *   3.14470000  *  -0.64411000  *
    18       N         -0.41373000  *   6.44747000  *   0.23107000  *
    19       C          0.76637000  *   7.08382000  *   0.32814000  *
    20       C          0.61419000  *   8.44913000  *   0.17355000  *
    21       C         -0.75962000  *   8.67584000  *   0.06327000  *
    22       C         -1.32192000  *   7.43003000  *   0.08540000  *
    23       C         -4.25459000  *  -8.73045000  *  -0.46358000  *
    24       C         -4.10635000  * -10.10491000  *  -0.41770000  *
    25       C         -3.21806000  * -10.33623000  *   0.63482000  *
    26       C         -2.85038000  *  -9.08589000  *   1.12181000  *
    27       C         -5.25165000  *  -8.17996000  *  -1.26117000  *
    28       C         -5.96971000  *  -8.93179000  *  -2.17670000  *
    29       C         -5.67069000  * -10.33910000  *  -2.28712000  *
    30       C         -4.84385000  * -10.91779000  *  -1.31963000  *
    31       C         -2.65839000  * -11.49002000  *   1.21872000  *
    32       C         -1.85166000  * -11.41311000  *   2.34857000  *
    33       C         -1.44818000  * -10.13450000  *   2.81405000  *
    34       C         -1.97959000  *  -9.00545000  *   2.21269000  *
    35       C         -1.59749000  *   9.81300000  *  -0.00674000  *
    36       C         -3.00339000  *   9.71216000  *  -0.02777000  *
    37       C         -3.50863000  *   8.35808000  *  -0.08494000  *
    38       C         -2.66934000  *   7.26319000  *   0.00464000  *
    39       C          2.00848000  *   6.49412000  *   0.47621000  *
    40       C          3.16568000  *   7.27260000  *   0.50901000  *
    41       C          3.02404000  *   8.70247000  *   0.33309000  *
    42       C          1.75681000  *   9.24747000  *   0.11658000  *
    43       C         -1.12512000  *  11.18195000  *   0.00382000  *
    44       C         -2.35974000  *  12.04914000  *   0.05364000  *
    45       C         -3.60316000  *  11.15648000  *  -0.00467000  *
    46       C          4.00099000  *   9.79218000  *   0.05890000  *
    47       C          3.27361000  *  10.78084000  *  -0.78793000  *
    48       C          1.84550000  *  10.66130000  *  -0.30267000  *
    49       C         -6.20603000  * -11.43721000  *  -3.15968000  *
    50       C         -6.00507000  * -12.73550000  *  -2.41164000  *
    51       C         -4.91861000  * -12.40270000  *  -1.37829000  *
    52       C         -2.75996000  * -12.87963000  *   0.76532000  *
    53       C         -1.64087000  * -13.62276000  *   1.50513000  *
    54       C         -1.39705000  * -12.78154000  *   2.72834000  *
    55       C         -6.65678000  * -11.40546000  *  -4.46557000  *
    56       C         -0.73146000  * -13.19357000  *   3.85059000  *
    57       C         -4.87832000  *  11.81880000  *  -0.00572000  *
    58       C          5.33407000  *   9.74112000  *   0.17588000  *
    59       C         -2.16037000  * -15.06689000  *   1.72072000  *
    60       C         -7.22074000  * -13.40185000  *  -1.71730000  *
    61       C         -2.20636000  *  12.92039000  *   1.34292000  *
    62       C          3.75342000  *  12.24045000  *  -0.61833000  *
    63       C         -7.39521000  * -12.48426000  *  -5.20749000  *
    64       C         -7.88588000  * -11.94395000  *  -6.39060000  *
    65       C         -7.37149000  * -10.59883000  *  -6.55267000  *
    66       C         -6.56779000  * -10.30120000  *  -5.46699000  *
    67       C          0.27414000  * -14.28864000  *   3.89010000  *
    68       C          0.85446000  * -14.31760000  *   5.14909000  *
    69       C          0.24432000  * -13.29327000  *   5.98222000  *
    70       C         -0.72039000  * -12.63709000  *   5.24125000  *
    71       C         -7.54543000  *  -9.71308000  *  -7.61875000  *
    72       C         -6.84330000  *  -8.50183000  *  -7.59924000  *
    73       C         -5.93846000  *  -8.23308000  *  -6.55957000  *
    74       C         -5.77269000  *  -9.15084000  *  -5.50713000  *
    75       C         -7.70732000  * -13.82056000  *  -4.89785000  *
    76       C         -8.55192000  * -14.55054000  *  -5.74019000  *
    77       C         -9.05693000  * -13.97647000  *  -6.91185000  *
    78       C         -8.70077000  * -12.67165000  *  -7.26083000  *
    79       C          0.79359000  * -15.11050000  *   2.87255000  *
    80       C          1.81291000  * -16.01235000  *   3.16869000  *
    81       C          2.35343000  * -16.06791000  *   4.45940000  *
    82       C          1.88771000  * -15.20237000  *   5.46017000  *
    83       C          0.51891000  * -12.94571000  *   7.30667000  *
    84       C         -0.22873000  * -11.91639000  *   7.89847000  *
    85       C         -1.25038000  * -11.27635000  *   7.17522000  *
    86       C         -1.51714000  * -11.64679000  *   5.84661000  *
    87       C          6.27981000  *  10.12729000  *  -0.89885000  *
    88       C          7.55841000  *   9.79994000  *  -0.49387000  *
    89       C          7.48943000  *   9.23870000  *   0.86652000  *
    90       C          6.15913000  *   9.16060000  *   1.24325000  *
    91       C         -6.35544000  *  11.37490000  *   0.10071000  *
    92       C         -7.19008000  *  12.48096000  *   0.03520000  *
    93       C         -6.40593000  *  13.66132000  *  -0.08364000  *
    94       C         -5.05178000  *  13.34979000  *  -0.14846000  *
    95       C         -6.90561000  *  14.96128000  *  -0.12946000  *
    96       C         -6.01805000  *  16.01822000  *  -0.26835000  *
    97       C         -4.65628000  *  15.76336000  *  -0.39467000  *
    98       C         -4.17053000  *  14.45427000  *  -0.35523000  *
    99       C         -7.03957000  *  10.18269000  *   0.30816000  *
   100       C         -8.42172000  *  10.05459000  *   0.36568000  *
   101       C         -9.21175000  *  11.17142000  *   0.24500000  *
   102       C         -8.59848000  *  12.41030000  *   0.09526000  *
   103       C          6.04131000  *  10.52492000  *  -2.23217000  *
   104       C          7.10039000  *  10.59861000  *  -3.12922000  *
   105       C          8.39660000  *  10.29850000  *  -2.70671000  *
   106       C          8.63976000  *   9.91473000  *  -1.37858000  *
   107       C          8.49889000  *   8.78183000  *   1.71751000  *
   108       C          8.14007000  *   8.25548000  *   2.97056000  *
   109       C          6.79260000  *   8.22288000  *   3.37109000  *
   110       C          5.79149000  *   8.70164000  *   2.51425000  *
   111       C        -11.21583000  * -10.13651000  *  -6.68821000  *
   112       C        -10.72537000  *  -8.95722000  *  -5.86597000  *
   113       C        -10.07112000  *  -9.43191000  *  -4.56891000  *
   114       C         -9.35894000  *  -8.27248000  *  -3.87110000  *
   115       C         -8.42302000  *  -8.80480000  *  -2.76963000  *
   116       C         -7.06198000  *  -8.13681000  *  -2.88089000  *
   117       C          4.95749000  *  -7.15528000  *   5.58130000  *
   118       C          3.81198000  *  -8.14208000  *   5.71740000  *
   119       C          2.98359000  *  -8.18023000  *   4.43066000  *
   120       C          1.77387000  *  -9.06616000  *   4.64236000  *
   121       C          0.83997000  *  -9.09473000  *   3.42275000  *
   122       C         -0.39895000  *  -9.87117000  *   3.85819000  *
   123       C        -10.17650000  *   4.64398000  *   0.24529000  *
   124       C         -9.29964000  *   5.84631000  *  -0.03630000  *
   125       C         -7.80772000  *   5.48223000  *   0.05316000  *
   126       C         -7.00442000  *   6.71437000  *  -0.30598000  *
   127       C         -5.48959000  *   6.58916000  *  -0.14129000  *
   128       C         -4.90332000  *   8.02471000  *  -0.16122000  *
   129       C         10.40847000  *   6.72988000  *  -0.60815000  *
   130       C          9.21452000  *   5.91241000  *  -0.13120000  *
   131       C          7.92374000  *   6.26694000  *  -0.89471000  *
   132       C          6.70185000  *   5.80535000  *  -0.09712000  *
   133       C          5.38983000  *   6.47755000  *  -0.54270000  *
   134       C          4.42384000  *   6.44308000  *   0.64665000  *
   135       H         -4.11719000  *  -6.02192000  *  -1.53990000  *
   136       H         -3.66042000  *  -3.82833000  *  -1.54378000  *
   137       H         -1.10502000  *  -4.22307000  *   1.84608000  *
   138       H         -1.60616000  *  -6.39319000  *   2.04094000  *
   139       H          0.33595000  *   2.11525000  *   1.70544000  *
   140       H          0.75881000  *   4.50711000  *   1.80630000  *
   141       H         -2.17912000  *   5.08883000  *  -1.35431000  *
   142       H         -2.66016000  *   2.75426000  *  -1.31794000  *
   143       H         -5.56225000  *  -7.17449000  *  -1.14705000  *
   144       H         -1.66238000  *  -8.13654000  *   2.67408000  *
   145       H         -3.08406000  *   6.28625000  *   0.06641000  *
   146       H          2.10184000  *   5.42822000  *   0.52632000  *
   147       H         -0.60704000  *  11.41979000  *  -0.93076000  *
   148       H         -0.49117000  *  11.27847000  *   0.91147000  *
   149       H         -2.35965000  *  12.61848000  *  -0.89354000  *
   150       H          3.27553000  *  10.40801000  *  -1.82857000  *
   151       H          1.27233000  *  10.87247000  *  -1.21785000  *
   152       H          1.62835000  *  11.31077000  *   0.57070000  *
   153       H         -5.54403000  * -13.44825000  *  -3.12878000  *
   154       H         -3.96098000  * -12.81776000  *  -1.72133000  *
   155       H         -5.23532000  * -12.76600000  *  -0.38056000  *
   156       H         -2.51802000  * -13.00033000  *  -0.29940000  *
   157       H         -3.77343000  * -13.21728000  *   1.06334000  *
   158       H         -0.70320000  * -13.56420000  *   0.91386000  *
   159       H         -3.15828000  * -15.07816000  *   2.20643000  *
   160       H         -1.53554000  * -15.70603000  *   2.35848000  *
   161       H         -2.23522000  * -15.56311000  *   0.72932000  *
   162       H         -7.54478000  * -12.86788000  *  -0.80536000  *
   163       H         -6.89854000  * -14.43087000  *  -1.42260000  *
   164       H         -8.12583000  * -13.49593000  *  -2.34031000  *
   165       H         -2.02291000  *  12.29636000  *   2.24201000  *
   166       H         -3.06478000  *  13.55085000  *   1.61601000  *
   167       H         -1.32706000  *  13.59431000  *   1.20608000  *
   168       H          3.67967000  *  12.55869000  *   0.44593000  *
   169       H          3.13915000  *  12.92393000  *  -1.23911000  *
   170       H          4.80894000  *  12.37577000  *  -0.91422000  *
   171       H         -8.19754000  *  -9.95386000  *  -8.44704000  *
   172       H         -6.96975000  *  -7.78945000  *  -8.40464000  *
   173       H         -5.36957000  *  -7.31167000  *  -6.56791000  *
   174       H         -5.05941000  *  -8.93501000  *  -4.72332000  *
   175       H         -7.34185000  * -14.33878000  *  -4.04301000  *
   176       H         -8.81508000  * -15.56643000  *  -5.47761000  *
   177       H         -9.71001000  * -14.55093000  *  -7.55347000  *
   178       H         -9.06451000  * -12.23795000  *  -8.18201000  *
   179       H          0.46614000  * -15.07910000  *   1.85198000  *
   180       H          2.19188000  * -16.65378000  *   2.38374000  *
   181       H          3.15131000  * -16.76449000  *   4.66803000  *
   182       H          2.33266000  * -15.21443000  *   6.44397000  *
   183       H          1.29343000  * -13.45156000  *   7.86616000  *
   184       H         -0.02635000  * -11.62137000  *   8.92030000  *
   185       H         -1.82911000  * -10.48941000  *   7.64407000  *
   186       H         -2.30537000  * -11.14567000  *   5.30017000  *
   187       H         -7.96457000  *  15.15528000  *  -0.05226000  *
   188       H         -6.38579000  *  17.03246000  *  -0.29224000  *
   189       H         -3.96398000  *  16.58475000  *  -0.52030000  *
   190       H         -3.11225000  *  14.41643000  *  -0.47308000  *
   191       H         -6.61441000  *   9.33515000  *   0.45859000  *
   192       H         -8.87673000  *   9.08304000  *   0.51753000  *
   193       H        -10.28475000  *  11.06057000  *   0.29418000  *
   194       H         -9.21963000  *  13.28586000  *   0.03261000  *
   195       H          5.08011000  *  10.72227000  *  -2.64962000  *
   196       H          6.90170000  *  10.86054000  *  -4.16186000  *
   197       H          9.20313000  *  10.33261000  *  -3.42482000  *
   198       H          9.63942000  *   9.66138000  *  -1.09290000  *
   199       H          9.53589000  *   8.82217000  *   1.43041000  *
   200       H          8.90559000  *   7.88217000  *   3.63798000  *
   201       H          6.52725000  *   7.83045000  *   4.34551000  *
   202       H          4.75452000  *   8.69283000  *   2.82995000  *
   203       H        -11.67920000  *  -9.77522000  *  -7.62733000  *
   204       H        -11.93380000  * -10.75360000  *  -6.11255000  *
   205       H        -10.35340000  * -10.76003000  *  -6.96604000  *
   206       H         -9.97542000  *  -8.41878000  *  -6.49050000  *
   207       H        -11.55853000  *  -8.26806000  *  -5.62821000  *
   208       H        -10.78892000  *  -9.93241000  *  -3.88689000  *
   209       H         -9.30593000  * -10.18020000  *  -4.84826000  *
   210       H         -8.75582000  *  -7.79846000  *  -4.67691000  *
   211       H        -10.04086000  *  -7.48514000  *  -3.48839000  *
   212       H         -8.85183000  *  -8.71144000  *  -1.74908000  *
   213       H         -8.26026000  *  -9.88193000  *  -2.93354000  *
   214       H         -6.79951000  *  -7.94490000  *  -3.89927000  *
   215       H         -7.16615000  *  -7.08554000  *  -2.53306000  *
   216       H          5.53862000  *  -7.13184000  *   6.52570000  *
   217       H          4.55097000  *  -6.13960000  *   5.38473000  *
   218       H          5.62154000  *  -7.45626000  *   4.74482000  *
   219       H          4.20867000  *  -9.15707000  *   5.94373000  *
   220       H          3.17188000  *  -7.81759000  *   6.56874000  *
   221       H          2.62305000  *  -7.15577000  *   4.19478000  *
   222       H          3.59580000  *  -8.56038000  *   3.58379000  *
   223       H          2.10383000  * -10.10336000  *   4.88883000  *
   224       H          1.20942000  *  -8.66521000  *   5.51431000  *
   225       H          0.57206000  *  -8.06203000  *   3.11654000  *
   226       H          1.34434000  *  -9.60743000  *   2.57223000  *
   227       H          0.05608000  * -10.79565000  *   4.14127000  *
   228       H         -0.87442000  *  -9.32476000  *   4.70645000  *
   229       H        -11.24253000  *   4.94554000  *   0.17453000  *
   230       H         -9.97294000  *   4.25245000  *   1.26382000  *
   231       H         -9.96956000  *   3.85817000  *  -0.51007000  *
   232       H         -9.53774000  *   6.23223000  *  -1.05183000  *
   233       H         -9.53893000  *   6.64768000  *   0.70218000  *
   234       H         -7.57284000  *   5.19269000  *   1.10293000  *
   235       H         -7.55034000  *   4.64803000  *  -0.62978000  *
   236       H         -7.23075000  *   7.04004000  *  -1.34992000  *
   237       H         -7.36512000  *   7.45459000  *   0.40958000  *
   238       H         -5.25639000  *   6.14091000  *   0.85090000  *
   239       H         -5.09542000  *   5.93388000  *  -0.94833000  *
   240       H         -5.27412000  *   8.55162000  *  -1.07573000  *
   241       H         -5.08245000  *   8.36464000  *   0.87165000  *
   242       H         11.31315000  *   6.46021000  *  -0.02713000  *
   243       H         10.22673000  *   7.79001000  *  -0.39530000  *
   244       H         10.58465000  *   6.61222000  *  -1.69391000  *
   245       H          9.41191000  *   4.82647000  *  -0.21499000  *
   246       H          9.10307000  *   6.16273000  *   0.94797000  *
   247       H          7.86910000  *   7.35854000  *  -0.95037000  *
   248       H          7.92580000  *   5.89373000  *  -1.94009000  *
   249       H          6.60314000  *   4.69917000  *  -0.06227000  *
   250       H          6.89577000  *   6.15619000  *   0.93888000  *
   251       H          5.58987000  *   7.51878000  *  -0.80147000  *
   252       H          4.96313000  *   6.01027000  *  -1.45651000  *
   253       H          4.20928000  *   5.36598000  *   0.82448000  *
   254       H          4.89346000  *   6.73955000  *   1.57913000  *
 


          CARTESIAN COORDINATES 

    NO.       ATOM         X         Y         Z

     1         C       -3.5412   -5.7782   -0.6925
     2         C       -3.2344   -4.4512   -0.7602
     3         C       -2.3753   -3.9272    0.1539
     4         C       -1.8073   -4.6708    1.1463
     5         C       -2.1476   -5.9985    1.2493
     6         C       -3.0689   -6.6297    0.3543
     7         C       -2.1312   -2.5934    0.0635
     8         N       -3.3969   -8.0756    0.3781
     9         C       -1.9200   -1.3999    0.0635
    10         C       -1.7088   -0.2064    0.0635
    11         C       -1.4900    0.9498    0.0977
    12         C       -1.1939    2.3075    0.1949
    13         C       -0.2209    2.7880    1.0648
    14         C        0.0292    4.1533    1.0975
    15         C       -0.6714    5.0279    0.2406
    16         C       -1.6320    4.4896   -0.6404
    17         C       -1.9023    3.1447   -0.6441
    18         N       -0.4137    6.4475    0.2311
    19         C        0.7664    7.0838    0.3281
    20         C        0.6142    8.4491    0.1736
    21         C       -0.7596    8.6758    0.0633
    22         C       -1.3219    7.4300    0.0854
    23         C       -4.2546   -8.7304   -0.4636
    24         C       -4.1063  -10.1049   -0.4177
    25         C       -3.2181  -10.3362    0.6348
    26         C       -2.8504   -9.0859    1.1218
    27         C       -5.2516   -8.1800   -1.2612
    28         C       -5.9697   -8.9318   -2.1767
    29         C       -5.6707  -10.3391   -2.2871
    30         C       -4.8438  -10.9178   -1.3196
    31         C       -2.6584  -11.4900    1.2187
    32         C       -1.8517  -11.4131    2.3486
    33         C       -1.4482  -10.1345    2.8140
    34         C       -1.9796   -9.0054    2.2127
    35         C       -1.5975    9.8130   -0.0067
    36         C       -3.0034    9.7122   -0.0278
    37         C       -3.5086    8.3581   -0.0849
    38         C       -2.6693    7.2632    0.0046
    39         C        2.0085    6.4941    0.4762
    40         C        3.1657    7.2726    0.5090
    41         C        3.0240    8.7025    0.3331
    42         C        1.7568    9.2475    0.1166
    43         C       -1.1251   11.1820    0.0038
    44         C       -2.3597   12.0491    0.0536
    45         C       -3.6032   11.1565   -0.0047
    46         C        4.0010    9.7922    0.0589
    47         C        3.2736   10.7808   -0.7879
    48         C        1.8455   10.6613   -0.3027
    49         C       -6.2060  -11.4372   -3.1597
    50         C       -6.0051  -12.7355   -2.4116
    51         C       -4.9186  -12.4027   -1.3783
    52         C       -2.7600  -12.8796    0.7653
    53         C       -1.6409  -13.6228    1.5051
    54         C       -1.3971  -12.7815    2.7283
    55         C       -6.6568  -11.4055   -4.4656
    56         C       -0.7315  -13.1936    3.8506
    57         C       -4.8783   11.8188   -0.0057
    58         C        5.3341    9.7411    0.1759
    59         C       -2.1604  -15.0669    1.7207
    60         C       -7.2207  -13.4018   -1.7173
    61         C       -2.2064   12.9204    1.3429
    62         C        3.7534   12.2404   -0.6183
    63         C       -7.3952  -12.4843   -5.2075
    64         C       -7.8859  -11.9440   -6.3906
    65         C       -7.3715  -10.5988   -6.5527
    66         C       -6.5678  -10.3012   -5.4670
    67         C        0.2741  -14.2886    3.8901
    68         C        0.8545  -14.3176    5.1491
    69         C        0.2443  -13.2933    5.9822
    70         C       -0.7204  -12.6371    5.2412
    71         C       -7.5454   -9.7131   -7.6188
    72         C       -6.8433   -8.5018   -7.5992
    73         C       -5.9385   -8.2331   -6.5596
    74         C       -5.7727   -9.1508   -5.5071
    75         C       -7.7073  -13.8206   -4.8979
    76         C       -8.5519  -14.5505   -5.7402
    77         C       -9.0569  -13.9765   -6.9119
    78         C       -8.7008  -12.6716   -7.2608
    79         C        0.7936  -15.1105    2.8725
    80         C        1.8129  -16.0124    3.1687
    81         C        2.3534  -16.0679    4.4594
    82         C        1.8877  -15.2024    5.4602
    83         C        0.5189  -12.9457    7.3067
    84         C       -0.2287  -11.9164    7.8985
    85         C       -1.2504  -11.2764    7.1752
    86         C       -1.5171  -11.6468    5.8466
    87         C        6.2798   10.1273   -0.8989
    88         C        7.5584    9.7999   -0.4939
    89         C        7.4894    9.2387    0.8665
    90         C        6.1591    9.1606    1.2432
    91         C       -6.3554   11.3749    0.1007
    92         C       -7.1901   12.4810    0.0352
    93         C       -6.4059   13.6613   -0.0836
    94         C       -5.0518   13.3498   -0.1485
    95         C       -6.9056   14.9613   -0.1295
    96         C       -6.0180   16.0182   -0.2684
    97         C       -4.6563   15.7634   -0.3947
    98         C       -4.1705   14.4543   -0.3552
    99         C       -7.0396   10.1827    0.3082
   100         C       -8.4217   10.0546    0.3657
   101         C       -9.2118   11.1714    0.2450
   102         C       -8.5985   12.4103    0.0953
   103         C        6.0413   10.5249   -2.2322
   104         C        7.1004   10.5986   -3.1292
   105         C        8.3966   10.2985   -2.7067
   106         C        8.6398    9.9147   -1.3786
   107         C        8.4989    8.7818    1.7175
   108         C        8.1401    8.2555    2.9706
   109         C        6.7926    8.2229    3.3711
   110         C        5.7915    8.7016    2.5143
   111         C      -11.2158  -10.1365   -6.6882
   112         C      -10.7254   -8.9572   -5.8660
   113         C      -10.0711   -9.4319   -4.5689
   114         C       -9.3589   -8.2725   -3.8711
   115         C       -8.4230   -8.8048   -2.7696
   116         C       -7.0620   -8.1368   -2.8809
   117         C        4.9575   -7.1553    5.5813
   118         C        3.8120   -8.1421    5.7174
   119         C        2.9836   -8.1802    4.4307
   120         C        1.7739   -9.0662    4.6424
   121         C        0.8400   -9.0947    3.4228
   122         C       -0.3990   -9.8712    3.8582
   123         C      -10.1765    4.6440    0.2453
   124         C       -9.2996    5.8463   -0.0363
   125         C       -7.8077    5.4822    0.0532
   126         C       -7.0044    6.7144   -0.3060
   127         C       -5.4896    6.5892   -0.1413
   128         C       -4.9033    8.0247   -0.1612
   129         C       10.4085    6.7299   -0.6082
   130         C        9.2145    5.9124   -0.1312
   131         C        7.9237    6.2669   -0.8947
   132         C        6.7019    5.8053   -0.0971
   133         C        5.3898    6.4775   -0.5427
   134         C        4.4238    6.4431    0.6467
   135         H       -4.1172   -6.0219   -1.5399
   136         H       -3.6604   -3.8283   -1.5438
   137         H       -1.1050   -4.2231    1.8461
   138         H       -1.6062   -6.3932    2.0409
   139         H        0.3360    2.1153    1.7054
   140         H        0.7588    4.5071    1.8063
   141         H       -2.1791    5.0888   -1.3543
   142         H       -2.6602    2.7543   -1.3179
   143         H       -5.5622   -7.1745   -1.1471
   144         H       -1.6624   -8.1365    2.6741
   145         H       -3.0841    6.2862    0.0664
   146         H        2.1018    5.4282    0.5263
   147         H       -0.6070   11.4198   -0.9308
   148         H       -0.4912   11.2785    0.9115
   149         H       -2.3597   12.6185   -0.8935
   150         H        3.2755   10.4080   -1.8286
   151         H        1.2723   10.8725   -1.2179
   152         H        1.6284   11.3108    0.5707
   153         H       -5.5440  -13.4482   -3.1288
   154         H       -3.9610  -12.8178   -1.7213
   155         H       -5.2353  -12.7660   -0.3806
   156         H       -2.5180  -13.0003   -0.2994
   157         H       -3.7734  -13.2173    1.0633
   158         H       -0.7032  -13.5642    0.9139
   159         H       -3.1583  -15.0782    2.2064
   160         H       -1.5355  -15.7060    2.3585
   161         H       -2.2352  -15.5631    0.7293
   162         H       -7.5448  -12.8679   -0.8054
   163         H       -6.8985  -14.4309   -1.4226
   164         H       -8.1258  -13.4959   -2.3403
   165         H       -2.0229   12.2964    2.2420
   166         H       -3.0648   13.5509    1.6160
   167         H       -1.3271   13.5943    1.2061
   168         H        3.6797   12.5587    0.4459
   169         H        3.1391   12.9239   -1.2391
   170         H        4.8089   12.3758   -0.9142
   171         H       -8.1975   -9.9539   -8.4470
   172         H       -6.9698   -7.7895   -8.4046
   173         H       -5.3696   -7.3117   -6.5679
   174         H       -5.0594   -8.9350   -4.7233
   175         H       -7.3418  -14.3388   -4.0430
   176         H       -8.8151  -15.5664   -5.4776
   177         H       -9.7100  -14.5509   -7.5535
   178         H       -9.0645  -12.2379   -8.1820
   179         H        0.4661  -15.0791    1.8520
   180         H        2.1919  -16.6538    2.3837
   181         H        3.1513  -16.7645    4.6680
   182         H        2.3327  -15.2144    6.4440
   183         H        1.2934  -13.4516    7.8662
   184         H       -0.0264  -11.6214    8.9203
   185         H       -1.8291  -10.4894    7.6441
   186         H       -2.3054  -11.1457    5.3002
   187         H       -7.9646   15.1553   -0.0523
   188         H       -6.3858   17.0325   -0.2922
   189         H       -3.9640   16.5847   -0.5203
   190         H       -3.1122   14.4164   -0.4731
   191         H       -6.6144    9.3352    0.4586
   192         H       -8.8767    9.0830    0.5175
   193         H      -10.2848   11.0606    0.2942
   194         H       -9.2196   13.2859    0.0326
   195         H        5.0801   10.7223   -2.6496
   196         H        6.9017   10.8605   -4.1619
   197         H        9.2031   10.3326   -3.4248
   198         H        9.6394    9.6614   -1.0929
   199         H        9.5359    8.8222    1.4304
   200         H        8.9056    7.8822    3.6380
   201         H        6.5273    7.8304    4.3455
   202         H        4.7545    8.6928    2.8300
   203         H      -11.6792   -9.7752   -7.6273
   204         H      -11.9338  -10.7536   -6.1125
   205         H      -10.3534  -10.7600   -6.9660
   206         H       -9.9754   -8.4188   -6.4905
   207         H      -11.5585   -8.2681   -5.6282
   208         H      -10.7889   -9.9324   -3.8869
   209         H       -9.3059  -10.1802   -4.8483
   210         H       -8.7558   -7.7985   -4.6769
   211         H      -10.0409   -7.4851   -3.4884
   212         H       -8.8518   -8.7114   -1.7491
   213         H       -8.2603   -9.8819   -2.9335
   214         H       -6.7995   -7.9449   -3.8993
   215         H       -7.1662   -7.0855   -2.5331
   216         H        5.5386   -7.1318    6.5257
   217         H        4.5510   -6.1396    5.3847
   218         H        5.6215   -7.4563    4.7448
   219         H        4.2087   -9.1571    5.9437
   220         H        3.1719   -7.8176    6.5687
   221         H        2.6231   -7.1558    4.1948
   222         H        3.5958   -8.5604    3.5838
   223         H        2.1038  -10.1034    4.8888
   224         H        1.2094   -8.6652    5.5143
   225         H        0.5721   -8.0620    3.1165
   226         H        1.3443   -9.6074    2.5722
   227         H        0.0561  -10.7957    4.1413
   228         H       -0.8744   -9.3248    4.7065
   229         H      -11.2425    4.9455    0.1745
   230         H       -9.9729    4.2524    1.2638
   231         H       -9.9696    3.8582   -0.5101
   232         H       -9.5377    6.2322   -1.0518
   233         H       -9.5389    6.6477    0.7022
   234         H       -7.5728    5.1927    1.1029
   235         H       -7.5503    4.6480   -0.6298
   236         H       -7.2308    7.0400   -1.3499
   237         H       -7.3651    7.4546    0.4096
   238         H       -5.2564    6.1409    0.8509
   239         H       -5.0954    5.9339   -0.9483
   240         H       -5.2741    8.5516   -1.0757
   241         H       -5.0824    8.3646    0.8717
   242         H       11.3132    6.4602   -0.0271
   243         H       10.2267    7.7900   -0.3953
   244         H       10.5846    6.6122   -1.6939
   245         H        9.4119    4.8265   -0.2150
   246         H        9.1031    6.1627    0.9480
   247         H        7.8691    7.3585   -0.9504
   248         H        7.9258    5.8937   -1.9401
   249         H        6.6031    4.6992   -0.0623
   250         H        6.8958    6.1562    0.9389
   251         H        5.5899    7.5188   -0.8015
   252         H        4.9631    6.0103   -1.4565
   253         H        4.2093    5.3660    0.8245
   254         H        4.8935    6.7396    1.5791

 General Reference for PM7:
 "Optimization of Parameters for Semiempirical Methods VI: More Modifications to the 
 NDDO Approximations and Re-optimization of Parameters", J. J. P. Stewart, J. Mol. Mod., 1:32, 19 (2013)
 http://www.springerlink.com/openurl.asp?genre=article&id=doi:10.1007/s00894-012-1667-x

           Empirical Formula: C132 H120 N2  =   254 atoms



      MOLECULAR POINT GROUP   :   C1  


      RHF CALCULATION, NO. OF DOUBLY OCCUPIED LEVELS = 329


          Geometry optimization using BFGS
 CYCLE:     1 TIME:   2.713 TIME LEFT:  2.00D  GRAD.:   425.664 HEAT:  547.2537
 CYCLE:     2 TIME:   2.356 TIME LEFT:  2.00D  GRAD.:   337.195 HEAT:  525.1636
 CYCLE:     3 TIME:   2.347 TIME LEFT:  2.00D  GRAD.:   211.482 HEAT:  507.4158
 CYCLE:     4 TIME:   2.298 TIME LEFT:  2.00D  GRAD.:   184.584 HEAT:  502.5661
 CYCLE:     5 TIME:   2.380 TIME LEFT:  2.00D  GRAD.:   167.886 HEAT:  497.4574
 CYCLE:     6 TIME:   2.228 TIME LEFT:  2.00D  GRAD.:   149.453 HEAT:  493.4968
 CYCLE:     7 TIME:   2.296 TIME LEFT:  2.00D  GRAD.:   133.665 HEAT:  489.1341
 CYCLE:     8 TIME:   2.079 TIME LEFT:  2.00D  GRAD.:   110.445 HEAT:  484.0300
 CYCLE:     9 TIME:   2.187 TIME LEFT:  2.00D  GRAD.:   115.036 HEAT:  480.2964
 CYCLE:    10 TIME:   2.208 TIME LEFT:  2.00D  GRAD.:   104.600 HEAT:  477.4369
 CYCLE:    11 TIME:   2.161 TIME LEFT:  2.00D  GRAD.:    87.150 HEAT:  474.5419
 CYCLE:    12 TIME:   1.994 TIME LEFT:  2.00D  GRAD.:    77.342 HEAT:  472.9436
 CYCLE:    13 TIME:   2.160 TIME LEFT:  2.00D  GRAD.:    72.056 HEAT:  471.4013
 CYCLE:    14 TIME:   2.088 TIME LEFT:  2.00D  GRAD.:    74.698 HEAT:  469.7387
 CYCLE:    15 TIME:   1.953 TIME LEFT:  2.00D  GRAD.:    74.196 HEAT:  467.9860
 CYCLE:    16 TIME:   2.125 TIME LEFT:  2.00D  GRAD.:    69.398 HEAT:  466.0254
 CYCLE:    17 TIME:   1.983 TIME LEFT:  2.00D  GRAD.:    66.241 HEAT:  464.6096
 CYCLE:    18 TIME:   2.068 TIME LEFT:  2.00D  GRAD.:    64.108 HEAT:  463.3133
 CYCLE:    19 TIME:   1.268 TIME LEFT:  2.00D  GRAD.:   104.656 HEAT:  462.9406
 CYCLE:    20 TIME:   1.357 TIME LEFT:  2.00D  GRAD.:   123.259 HEAT:  462.3457
 CYCLE:    21 TIME:   1.925 TIME LEFT:  2.00D  GRAD.:    84.425 HEAT:  459.1926
 CYCLE:    22 TIME:   1.903 TIME LEFT:  2.00D  GRAD.:    59.436 HEAT:  457.1624
 CYCLE:    23 TIME:   1.895 TIME LEFT:  2.00D  GRAD.:    47.781 HEAT:  456.1960
 CYCLE:    24 TIME:   1.387 TIME LEFT:  2.00D  GRAD.:    91.020 HEAT:  455.6538
 CYCLE:    25 TIME:   1.308 TIME LEFT:  2.00D  GRAD.:    92.635 HEAT:  453.6710
 CYCLE:    26 TIME:   2.116 TIME LEFT:  2.00D  GRAD.:    71.054 HEAT:  451.4846
 CYCLE:    27 TIME:   1.946 TIME LEFT:  2.00D  GRAD.:    50.343 HEAT:  450.0594
 CYCLE:    28 TIME:   1.271 TIME LEFT:  2.00D  GRAD.:    95.820 HEAT:  450.0429
 CYCLE:    29 TIME:   1.273 TIME LEFT:  2.00D  GRAD.:    70.519 HEAT:  447.2411
 CYCLE:    30 TIME:   1.870 TIME LEFT:  2.00D  GRAD.:    48.202 HEAT:  445.8070
 CYCLE:    31 TIME:   1.307 TIME LEFT:  2.00D  GRAD.:    75.355 HEAT:  445.8048
 CYCLE:    32 TIME:   1.261 TIME LEFT:  2.00D  GRAD.:    85.510 HEAT:  444.4366
 CYCLE:    33 TIME:   1.237 TIME LEFT:  2.00D  GRAD.:    91.538 HEAT:  443.8715
 CYCLE:    34 TIME:   1.275 TIME LEFT:  2.00D  GRAD.:    78.638 HEAT:  442.6715
 CYCLE:    35 TIME:   1.844 TIME LEFT:  2.00D  GRAD.:    45.750 HEAT:  441.2983
 CYCLE:    36 TIME:   1.932 TIME LEFT:  2.00D  GRAD.:    34.116 HEAT:  440.6366
 CYCLE:    37 TIME:   1.858 TIME LEFT:  2.00D  GRAD.:    34.289 HEAT:  440.1302
 CYCLE:    38 TIME:   1.314 TIME LEFT:  2.00D  GRAD.:    57.686 HEAT:  439.8574
 CYCLE:    39 TIME:   1.112 TIME LEFT:  2.00D  GRAD.:    62.439 HEAT:  438.8502
 CYCLE:    40 TIME:   1.229 TIME LEFT:  2.00D  GRAD.:    64.812 HEAT:  438.4272
 CYCLE:    41 TIME:   1.108 TIME LEFT:  2.00D  GRAD.:    47.229 HEAT:  437.5558
 CYCLE:    42 TIME:   1.187 TIME LEFT:  2.00D  GRAD.:    36.441 HEAT:  436.8785
 CYCLE:    43 TIME:   1.792 TIME LEFT:  2.00D  GRAD.:    28.889 HEAT:  436.3566
 CYCLE:    44 TIME:   1.123 TIME LEFT:  2.00D  GRAD.:    51.084 HEAT:  436.0938
 CYCLE:    45 TIME:   1.110 TIME LEFT:  2.00D  GRAD.:    47.410 HEAT:  435.3549
 CYCLE:    46 TIME:   1.677 TIME LEFT:  2.00D  GRAD.:    34.320 HEAT:  434.6679
 CYCLE:    47 TIME:   1.223 TIME LEFT:  2.00D  GRAD.:    59.836 HEAT:  434.6654
 CYCLE:    48 TIME:   1.109 TIME LEFT:  2.00D  GRAD.:    44.846 HEAT:  433.3641
 CYCLE:    49 TIME:   1.697 TIME LEFT:  2.00D  GRAD.:    30.536 HEAT:  432.7444
 CYCLE:    50 TIME:   1.117 TIME LEFT:  2.00D  GRAD.:    41.765 HEAT:  432.1460
 CYCLE:    51 TIME:   1.115 TIME LEFT:  2.00D  GRAD.:    32.224 HEAT:  431.1543
 CYCLE:    52 TIME:   1.183 TIME LEFT:  2.00D  GRAD.:    38.890 HEAT:  430.3306
 CYCLE:    53 TIME:   1.211 TIME LEFT:  2.00D  GRAD.:    39.831 HEAT:  429.4594
 CYCLE:    54 TIME:   1.282 TIME LEFT:  2.00D  GRAD.:    44.456 HEAT:  428.6029
 CYCLE:    55 TIME:   1.117 TIME LEFT:  2.00D  GRAD.:    45.952 HEAT:  427.9251
 CYCLE:    56 TIME:   1.125 TIME LEFT:  2.00D  GRAD.:    44.290 HEAT:  427.2145
 CYCLE:    57 TIME:   1.113 TIME LEFT:  2.00D  GRAD.:    33.449 HEAT:  426.3238
 CYCLE:    58 TIME:   1.197 TIME LEFT:  2.00D  GRAD.:    37.379 HEAT:  425.5204
 CYCLE:    59 TIME:   1.199 TIME LEFT:  2.00D  GRAD.:    30.986 HEAT:  424.7212
 CYCLE:    60 TIME:   1.293 TIME LEFT:  2.00D  GRAD.:    37.199 HEAT:  423.8256
 CYCLE:    61 TIME:   1.304 TIME LEFT:  2.00D  GRAD.:    44.389 HEAT:  423.2261
 CYCLE:    62 TIME:   1.131 TIME LEFT:  2.00D  GRAD.:    39.335 HEAT:  422.4543
 CYCLE:    63 TIME:   1.121 TIME LEFT:  2.00D  GRAD.:    30.741 HEAT:  421.7894
 CYCLE:    64 TIME:   1.198 TIME LEFT:  2.00D  GRAD.:    38.661 HEAT:  421.1169
 CYCLE:    65 TIME:   1.193 TIME LEFT:  2.00D  GRAD.:    31.641 HEAT:  420.4230
 CYCLE:    66 TIME:   1.317 TIME LEFT:  2.00D  GRAD.:    40.574 HEAT:  419.5738
 CYCLE:    67 TIME:   1.315 TIME LEFT:  2.00D  GRAD.:    41.557 HEAT:  418.8965
 CYCLE:    68 TIME:   1.175 TIME LEFT:  2.00D  GRAD.:    40.908 HEAT:  418.1927
 CYCLE:    69 TIME:   1.110 TIME LEFT:  2.00D  GRAD.:    38.042 HEAT:  417.6669
 TEST ON GRADIENT SATISFIED
                    HOWEVER, A COMPONENT OF GRADIENT IS LARGER THAN  1.00

 CYCLE:    70 TIME:   1.124 TIME LEFT:  2.00D  GRAD.:    25.368 HEAT:  416.9451
 CYCLE:    71 TIME:   1.195 TIME LEFT:  2.00D  GRAD.:    29.140 HEAT:  416.4594
 CYCLE:    72 TIME:   1.192 TIME LEFT:  2.00D  GRAD.:    29.447 HEAT:  415.8469
 CYCLE:    73 TIME:   1.203 TIME LEFT:  2.00D  GRAD.:    28.820 HEAT:  415.2138
 CYCLE:    74 TIME:   1.201 TIME LEFT:  2.00D  GRAD.:    35.232 HEAT:  414.7638
 TEST ON GRADIENT SATISFIED
                    HOWEVER, A COMPONENT OF GRADIENT IS LARGER THAN  1.00

 CYCLE:    75 TIME:   1.123 TIME LEFT:  2.00D  GRAD.:    26.939 HEAT:  414.2704
 TEST ON GRADIENT SATISFIED
                    HOWEVER, A COMPONENT OF GRADIENT IS LARGER THAN  1.00

 CYCLE:    76 TIME:   1.698 TIME LEFT:  2.00D  GRAD.:    24.977 HEAT:  413.8803
 CYCLE:    77 TIME:   1.218 TIME LEFT:  2.00D  GRAD.:    30.060 HEAT:  413.5469
 CYCLE:    78 TIME:   1.194 TIME LEFT:  2.00D  GRAD.:    28.052 HEAT:  412.9869
 TEST ON GRADIENT SATISFIED
                    HOWEVER, A COMPONENT OF GRADIENT IS LARGER THAN  1.00

 CYCLE:    79 TIME:   1.192 TIME LEFT:  2.00D  GRAD.:    27.020 HEAT:  412.5569
 TEST ON GRADIENT SATISFIED
                    HOWEVER, A COMPONENT OF GRADIENT IS LARGER THAN  1.00

 CYCLE:    80 TIME:   1.122 TIME LEFT:  2.00D  GRAD.:    22.976 HEAT:  412.1801
 TEST ON GRADIENT SATISFIED
                    HOWEVER, A COMPONENT OF GRADIENT IS LARGER THAN  1.00

 CYCLE:    81 TIME:   1.124 TIME LEFT:  2.00D  GRAD.:    23.267 HEAT:  411.7598
 TEST ON GRADIENT SATISFIED
                    HOWEVER, A COMPONENT OF GRADIENT IS LARGER THAN  1.00

 CYCLE:    82 TIME:   1.196 TIME LEFT:  2.00D  GRAD.:    26.128 HEAT:  411.3691
 TEST ON GRADIENT SATISFIED
                    HOWEVER, A COMPONENT OF GRADIENT IS LARGER THAN  1.00

 CYCLE:    83 TIME:   1.201 TIME LEFT:  2.00D  GRAD.:    22.274 HEAT:  410.9279
 TEST ON GRADIENT SATISFIED
                    HOWEVER, A COMPONENT OF GRADIENT IS LARGER THAN  1.00

 CYCLE:    84 TIME:   1.134 TIME LEFT:  2.00D  GRAD.:    20.428 HEAT:  410.5553
 TEST ON GRADIENT SATISFIED
                    HOWEVER, A COMPONENT OF GRADIENT IS LARGER THAN  1.00

 CYCLE:    85 TIME:   1.117 TIME LEFT:  2.00D  GRAD.:    19.802 HEAT:  410.2486
 TEST ON GRADIENT SATISFIED
                    HOWEVER, A COMPONENT OF GRADIENT IS LARGER THAN  1.00

 CYCLE:    86 TIME:   1.135 TIME LEFT:  2.00D  GRAD.:    19.592 HEAT:  409.9237
 TEST ON GRADIENT SATISFIED
                    HOWEVER, A COMPONENT OF GRADIENT IS LARGER THAN  1.00

 CYCLE:    87 TIME:   1.692 TIME LEFT:  2.00D  GRAD.:    24.086 HEAT:  409.5973
 TEST ON GRADIENT SATISFIED
                    HOWEVER, A COMPONENT OF GRADIENT IS LARGER THAN  1.00

 CYCLE:    88 TIME:   1.139 TIME LEFT:  2.00D  GRAD.:    18.680 HEAT:  409.3383
 TEST ON GRADIENT SATISFIED
                    HOWEVER, A COMPONENT OF GRADIENT IS LARGER THAN  1.00

 CYCLE:    89 TIME:   1.688 TIME LEFT:  2.00D  GRAD.:    19.467 HEAT:  409.0693
 TEST ON GRADIENT SATISFIED
                    HOWEVER, A COMPONENT OF GRADIENT IS LARGER THAN  1.00

 CYCLE:    90 TIME:   1.136 TIME LEFT:  2.00D  GRAD.:    20.290 HEAT:  408.8120
 TEST ON GRADIENT SATISFIED
                    HOWEVER, A COMPONENT OF GRADIENT IS LARGER THAN  1.00

 CYCLE:    91 TIME:   1.687 TIME LEFT:  2.00D  GRAD.:    21.806 HEAT:  408.5112
 TEST ON GRADIENT SATISFIED
                    HOWEVER, A COMPONENT OF GRADIENT IS LARGER THAN  1.00

 CYCLE:    92 TIME:   1.120 TIME LEFT:  2.00D  GRAD.:    17.621 HEAT:  408.2980
 TEST ON GRADIENT SATISFIED
                    HOWEVER, A COMPONENT OF GRADIENT IS LARGER THAN  1.00

 CYCLE:    93 TIME:   1.686 TIME LEFT:  2.00D  GRAD.:    19.884 HEAT:  408.0623
 TEST ON GRADIENT SATISFIED
                    HOWEVER, A COMPONENT OF GRADIENT IS LARGER THAN  1.00

 CYCLE:    94 TIME:   1.119 TIME LEFT:  2.00D  GRAD.:    17.533 HEAT:  407.8427
 TEST ON GRADIENT SATISFIED
                    HOWEVER, A COMPONENT OF GRADIENT IS LARGER THAN  1.00

 CYCLE:    95 TIME:   1.123 TIME LEFT:  2.00D  GRAD.:    16.292 HEAT:  407.6270
 TEST ON GRADIENT SATISFIED
                    HOWEVER, A COMPONENT OF GRADIENT IS LARGER THAN  1.00

 CYCLE:    96 TIME:   1.124 TIME LEFT:  2.00D  GRAD.:    14.538 HEAT:  407.4435
 TEST ON GRADIENT SATISFIED
                    HOWEVER, A COMPONENT OF GRADIENT IS LARGER THAN  1.00

 CYCLE:    97 TIME:   1.121 TIME LEFT:  2.00D  GRAD.:    13.727 HEAT:  407.2458
 TEST ON GRADIENT SATISFIED
                    HOWEVER, A COMPONENT OF GRADIENT IS LARGER THAN  1.00

 CYCLE:    98 TIME:   1.132 TIME LEFT:  2.00D  GRAD.:    13.895 HEAT:  407.0682
 TEST ON GRADIENT SATISFIED
                    HOWEVER, A COMPONENT OF GRADIENT IS LARGER THAN  1.00

 CYCLE:    99 TIME:   1.127 TIME LEFT:  2.00D  GRAD.:    14.794 HEAT:  406.9053
 TEST ON GRADIENT SATISFIED
                    HOWEVER, A COMPONENT OF GRADIENT IS LARGER THAN  1.00

 CYCLE:   100 TIME:   1.133 TIME LEFT:  2.00D  GRAD.:    15.743 HEAT:  406.7189
 TEST ON GRADIENT SATISFIED
                    HOWEVER, A COMPONENT OF GRADIENT IS LARGER THAN  1.00

 CYCLE:   101 TIME:   1.130 TIME LEFT:  2.00D  GRAD.:    14.696 HEAT:  406.4920
 TEST ON GRADIENT SATISFIED
                    HOWEVER, A COMPONENT OF GRADIENT IS LARGER THAN  1.00

 CYCLE:   102 TIME:   1.120 TIME LEFT:  2.00D  GRAD.:    14.897 HEAT:  406.2861
 TEST ON GRADIENT SATISFIED
                    HOWEVER, A COMPONENT OF GRADIENT IS LARGER THAN  1.00

 CYCLE:   103 TIME:   1.136 TIME LEFT:  2.00D  GRAD.:    14.189 HEAT:  406.1062
 TEST ON GRADIENT SATISFIED
                    HOWEVER, A COMPONENT OF GRADIENT IS LARGER THAN  1.00

 CYCLE:   104 TIME:   2.256 TIME LEFT:  2.00D  GRAD.:    20.758 HEAT:  405.8350
 TEST ON GRADIENT SATISFIED
                    HOWEVER, A COMPONENT OF GRADIENT IS LARGER THAN  1.00

 CYCLE:   105 TIME:   1.120 TIME LEFT:  2.00D  GRAD.:    15.350 HEAT:  405.6913
 TEST ON GRADIENT SATISFIED
                    HOWEVER, A COMPONENT OF GRADIENT IS LARGER THAN  1.00

 CYCLE:   106 TIME:   1.116 TIME LEFT:  2.00D  GRAD.:    15.769 HEAT:  405.5155
 TEST ON GRADIENT SATISFIED
                    HOWEVER, A COMPONENT OF GRADIENT IS LARGER THAN  1.00

 CYCLE:   107 TIME:   1.135 TIME LEFT:  2.00D  GRAD.:    13.840 HEAT:  405.3335
 TEST ON GRADIENT SATISFIED
                    HOWEVER, A COMPONENT OF GRADIENT IS LARGER THAN  1.00

 CYCLE:   108 TIME:   1.689 TIME LEFT:  2.00D  GRAD.:    16.283 HEAT:  405.1131
 TEST ON GRADIENT SATISFIED
                    HOWEVER, A COMPONENT OF GRADIENT IS LARGER THAN  1.00

 CYCLE:   109 TIME:   1.695 TIME LEFT:  2.00D  GRAD.:    17.804 HEAT:  404.8392
 TEST ON GRADIENT SATISFIED
                    HOWEVER, A COMPONENT OF GRADIENT IS LARGER THAN  1.00

 CYCLE:   110 TIME:   1.122 TIME LEFT:  2.00D  GRAD.:    14.887 HEAT:  404.6317
 TEST ON GRADIENT SATISFIED
                    HOWEVER, A COMPONENT OF GRADIENT IS LARGER THAN  1.00

 CYCLE:   111 TIME:   1.129 TIME LEFT:  2.00D  GRAD.:    13.375 HEAT:  404.4765
 TEST ON GRADIENT SATISFIED
                    HOWEVER, A COMPONENT OF GRADIENT IS LARGER THAN  1.00

 CYCLE:   112 TIME:   1.692 TIME LEFT:  2.00D  GRAD.:    14.604 HEAT:  404.2348
 TEST ON GRADIENT SATISFIED
                    HOWEVER, A COMPONENT OF GRADIENT IS LARGER THAN  1.00

 CYCLE:   113 TIME:   1.119 TIME LEFT:  2.00D  GRAD.:    13.544 HEAT:  404.0431
 TEST ON GRADIENT SATISFIED
                    HOWEVER, A COMPONENT OF GRADIENT IS LARGER THAN  1.00

 CYCLE:   114 TIME:   1.140 TIME LEFT:  2.00D  GRAD.:    15.315 HEAT:  403.8949
 TEST ON GRADIENT SATISFIED
                    HOWEVER, A COMPONENT OF GRADIENT IS LARGER THAN  1.00

 CYCLE:   115 TIME:   2.351 TIME LEFT:  2.00D  GRAD.:    20.824 HEAT:  403.6108
 TEST ON GRADIENT SATISFIED
                    HOWEVER, A COMPONENT OF GRADIENT IS LARGER THAN  1.00

 CYCLE:   116 TIME:   1.124 TIME LEFT:  2.00D  GRAD.:    15.565 HEAT:  403.3891
 TEST ON GRADIENT SATISFIED
                    HOWEVER, A COMPONENT OF GRADIENT IS LARGER THAN  1.00

 CYCLE:   117 TIME:   1.121 TIME LEFT:  2.00D  GRAD.:    18.095 HEAT:  403.2934
 TEST ON GRADIENT SATISFIED
                    HOWEVER, A COMPONENT OF GRADIENT IS LARGER THAN  1.00

 CYCLE:   118 TIME:   1.122 TIME LEFT:  2.00D  GRAD.:    16.132 HEAT:  403.1351
 TEST ON GRADIENT SATISFIED
                    HOWEVER, A COMPONENT OF GRADIENT IS LARGER THAN  1.00

 CYCLE:   119 TIME:   1.135 TIME LEFT:  2.00D  GRAD.:    22.174 HEAT:  402.9812
 TEST ON GRADIENT SATISFIED
                    HOWEVER, A COMPONENT OF GRADIENT IS LARGER THAN  1.00

 CYCLE:   120 TIME:   1.705 TIME LEFT:  2.00D  GRAD.:    17.161 HEAT:  402.6943
 TEST ON GRADIENT SATISFIED
                    HOWEVER, A COMPONENT OF GRADIENT IS LARGER THAN  1.00

 CYCLE:   121 TIME:   1.199 TIME LEFT:  2.00D  GRAD.:    13.455 HEAT:  402.4445
 TEST ON GRADIENT SATISFIED
                    HOWEVER, A COMPONENT OF GRADIENT IS LARGER THAN  1.00

 CYCLE:   122 TIME:   1.870 TIME LEFT:  2.00D  GRAD.:    22.845 HEAT:  402.1615
 TEST ON GRADIENT SATISFIED
                    HOWEVER, A COMPONENT OF GRADIENT IS LARGER THAN  1.00

 CYCLE:   123 TIME:   1.110 TIME LEFT:  2.00D  GRAD.:    15.050 HEAT:  401.9002
 TEST ON GRADIENT SATISFIED
                    HOWEVER, A COMPONENT OF GRADIENT IS LARGER THAN  1.00

 CYCLE:   124 TIME:   1.712 TIME LEFT:  2.00D  GRAD.:    13.582 HEAT:  401.6458
 TEST ON GRADIENT SATISFIED
                    HOWEVER, A COMPONENT OF GRADIENT IS LARGER THAN  1.00

 CYCLE:   125 TIME:   2.358 TIME LEFT:  2.00D  GRAD.:    22.247 HEAT:  401.2673
 TEST ON GRADIENT SATISFIED
                    HOWEVER, A COMPONENT OF GRADIENT IS LARGER THAN  1.00

 CYCLE:   126 TIME:   1.113 TIME LEFT:  2.00D  GRAD.:    15.844 HEAT:  401.0393
 TEST ON GRADIENT SATISFIED
                    HOWEVER, A COMPONENT OF GRADIENT IS LARGER THAN  1.00

 CYCLE:   127 TIME:   2.363 TIME LEFT:  2.00D  GRAD.:    22.725 HEAT:  400.7044
 TEST ON GRADIENT SATISFIED
                    HOWEVER, A COMPONENT OF GRADIENT IS LARGER THAN  1.00

 CYCLE:   128 TIME:   1.124 TIME LEFT:  2.00D  GRAD.:    18.224 HEAT:  400.5044
 TEST ON GRADIENT SATISFIED
                    HOWEVER, A COMPONENT OF GRADIENT IS LARGER THAN  1.00

 CYCLE:   129 TIME:   1.707 TIME LEFT:  2.00D  GRAD.:    17.146 HEAT:  400.2202
 TEST ON GRADIENT SATISFIED
                    HOWEVER, A COMPONENT OF GRADIENT IS LARGER THAN  1.00

 CYCLE:   130 TIME:   1.207 TIME LEFT:  2.00D  GRAD.:    17.913 HEAT:  399.8894
 CYCLE:   131 TIME:   1.859 TIME LEFT:  2.00D  GRAD.:    28.802 HEAT:  399.5037
 TEST ON GRADIENT SATISFIED
                    HOWEVER, A COMPONENT OF GRADIENT IS LARGER THAN  1.00

 CYCLE:   132 TIME:   1.127 TIME LEFT:  2.00D  GRAD.:    19.232 HEAT:  399.1839
 TEST ON GRADIENT SATISFIED
                    HOWEVER, A COMPONENT OF GRADIENT IS LARGER THAN  1.00

 CYCLE:   133 TIME:   1.702 TIME LEFT:  2.00D  GRAD.:    18.252 HEAT:  398.9035
 TEST ON GRADIENT SATISFIED
                    HOWEVER, A COMPONENT OF GRADIENT IS LARGER THAN  1.00

 CYCLE:   134 TIME:   1.699 TIME LEFT:  2.00D  GRAD.:    19.190 HEAT:  398.5772
 TEST ON GRADIENT SATISFIED
                    HOWEVER, A COMPONENT OF GRADIENT IS LARGER THAN  1.00

 CYCLE:   135 TIME:   1.125 TIME LEFT:  2.00D  GRAD.:    16.276 HEAT:  398.2745
 TEST ON GRADIENT SATISFIED
                    HOWEVER, A COMPONENT OF GRADIENT IS LARGER THAN  1.00

 CYCLE:   136 TIME:   1.140 TIME LEFT:  2.00D  GRAD.:    15.719 HEAT:  398.0033
 TEST ON GRADIENT SATISFIED
                    HOWEVER, A COMPONENT OF GRADIENT IS LARGER THAN  1.00

 CYCLE:   137 TIME:   2.352 TIME LEFT:  2.00D  GRAD.:    22.216 HEAT:  397.6789
 TEST ON GRADIENT SATISFIED
                    HOWEVER, A COMPONENT OF GRADIENT IS LARGER THAN  1.00

 CYCLE:   138 TIME:   1.135 TIME LEFT:  2.00D  GRAD.:    16.404 HEAT:  397.4283
 TEST ON GRADIENT SATISFIED
                    HOWEVER, A COMPONENT OF GRADIENT IS LARGER THAN  1.00

 CYCLE:   139 TIME:   1.120 TIME LEFT:  2.00D  GRAD.:    14.362 HEAT:  397.2137
 TEST ON GRADIENT SATISFIED
                    HOWEVER, A COMPONENT OF GRADIENT IS LARGER THAN  1.00

 CYCLE:   140 TIME:   1.134 TIME LEFT:  2.00D  GRAD.:    17.286 HEAT:  396.9729
 TEST ON GRADIENT SATISFIED
                    HOWEVER, A COMPONENT OF GRADIENT IS LARGER THAN  1.00

 CYCLE:   141 TIME:   1.699 TIME LEFT:  2.00D  GRAD.:    18.343 HEAT:  396.7157
 TEST ON GRADIENT SATISFIED
                    HOWEVER, A COMPONENT OF GRADIENT IS LARGER THAN  1.00

 CYCLE:   142 TIME:   1.127 TIME LEFT:  2.00D  GRAD.:    14.016 HEAT:  396.4798
 TEST ON GRADIENT SATISFIED
                    HOWEVER, A COMPONENT OF GRADIENT IS LARGER THAN  1.00

 CYCLE:   143 TIME:   1.702 TIME LEFT:  2.00D  GRAD.:    23.221 HEAT:  396.2240
 TEST ON GRADIENT SATISFIED
                    HOWEVER, A COMPONENT OF GRADIENT IS LARGER THAN  1.00

 CYCLE:   144 TIME:   1.127 TIME LEFT:  2.00D  GRAD.:    15.482 HEAT:  395.9779
 TEST ON GRADIENT SATISFIED
                    HOWEVER, A COMPONENT OF GRADIENT IS LARGER THAN  1.00

 CYCLE:   145 TIME:   1.692 TIME LEFT:  2.00D  GRAD.:    15.222 HEAT:  395.7185
 TEST ON GRADIENT SATISFIED
                    HOWEVER, A COMPONENT OF GRADIENT IS LARGER THAN  1.00

 CYCLE:   146 TIME:   1.698 TIME LEFT:  2.00D  GRAD.:    22.861 HEAT:  395.4494
 TEST ON GRADIENT SATISFIED
                    HOWEVER, A COMPONENT OF GRADIENT IS LARGER THAN  1.00

 CYCLE:   147 TIME:   1.130 TIME LEFT:  2.00D  GRAD.:    17.350 HEAT:  395.1923
 TEST ON GRADIENT SATISFIED
                    HOWEVER, A COMPONENT OF GRADIENT IS LARGER THAN  1.00

 CYCLE:   148 TIME:   1.693 TIME LEFT:  2.00D  GRAD.:    18.364 HEAT:  394.9458
 TEST ON GRADIENT SATISFIED
                    HOWEVER, A COMPONENT OF GRADIENT IS LARGER THAN  1.00

 CYCLE:   149 TIME:   1.697 TIME LEFT:  2.00D  GRAD.:    20.220 HEAT:  394.6997
 TEST ON GRADIENT SATISFIED
                    HOWEVER, A COMPONENT OF GRADIENT IS LARGER THAN  1.00

 CYCLE:   150 TIME:   1.117 TIME LEFT:  2.00D  GRAD.:    14.237 HEAT:  394.4875
 TEST ON GRADIENT SATISFIED
                    HOWEVER, A COMPONENT OF GRADIENT IS LARGER THAN  1.00

 CYCLE:   151 TIME:   2.256 TIME LEFT:  2.00D  GRAD.:    16.342 HEAT:  394.2737
 TEST ON GRADIENT SATISFIED
                    HOWEVER, A COMPONENT OF GRADIENT IS LARGER THAN  1.00

 CYCLE:   152 TIME:   1.134 TIME LEFT:  2.00D  GRAD.:    13.344 HEAT:  394.1320
 TEST ON GRADIENT SATISFIED
                    HOWEVER, A COMPONENT OF GRADIENT IS LARGER THAN  1.00

 CYCLE:   153 TIME:   1.118 TIME LEFT:  2.00D  GRAD.:    13.814 HEAT:  393.9724
 TEST ON GRADIENT SATISFIED
                    HOWEVER, A COMPONENT OF GRADIENT IS LARGER THAN  1.00

 CYCLE:   154 TIME:   1.129 TIME LEFT:  2.00D  GRAD.:    12.504 HEAT:  393.7986
 TEST ON GRADIENT SATISFIED
                    HOWEVER, A COMPONENT OF GRADIENT IS LARGER THAN  1.00

 CYCLE:   155 TIME:   1.687 TIME LEFT:  2.00D  GRAD.:    14.041 HEAT:  393.5880
 TEST ON GRADIENT SATISFIED
                    HOWEVER, A COMPONENT OF GRADIENT IS LARGER THAN  1.00

 CYCLE:   156 TIME:   1.688 TIME LEFT:  2.00D  GRAD.:    19.331 HEAT:  393.3585
 TEST ON GRADIENT SATISFIED
                    HOWEVER, A COMPONENT OF GRADIENT IS LARGER THAN  1.00

 CYCLE:   157 TIME:   1.110 TIME LEFT:  2.00D  GRAD.:    12.504 HEAT:  393.1715
 TEST ON GRADIENT SATISFIED
                    HOWEVER, A COMPONENT OF GRADIENT IS LARGER THAN  1.00

 CYCLE:   158 TIME:   1.120 TIME LEFT:  2.00D  GRAD.:    13.404 HEAT:  393.0081
 TEST ON GRADIENT SATISFIED
                    HOWEVER, A COMPONENT OF GRADIENT IS LARGER THAN  1.00

 CYCLE:   159 TIME:   1.685 TIME LEFT:  2.00D  GRAD.:    16.100 HEAT:  392.7668
 TEST ON GRADIENT SATISFIED
                    HOWEVER, A COMPONENT OF GRADIENT IS LARGER THAN  1.00

 CYCLE:   160 TIME:   1.131 TIME LEFT:  2.00D  GRAD.:    10.199 HEAT:  392.6361
 TEST ON GRADIENT SATISFIED
                    HOWEVER, A COMPONENT OF GRADIENT IS LARGER THAN  1.00

 CYCLE:   161 TIME:   2.334 TIME LEFT:  2.00D  GRAD.:    17.043 HEAT:  392.4865
 TEST ON GRADIENT SATISFIED
                    HOWEVER, A COMPONENT OF GRADIENT IS LARGER THAN  1.00

 CYCLE:   162 TIME:   1.134 TIME LEFT:  2.00D  GRAD.:    11.530 HEAT:  392.3496
 TEST ON GRADIENT SATISFIED
                    HOWEVER, A COMPONENT OF GRADIENT IS LARGER THAN  1.00

 CYCLE:   163 TIME:   2.263 TIME LEFT:  2.00D  GRAD.:    15.166 HEAT:  392.1708
 TEST ON GRADIENT SATISFIED
                    HOWEVER, A COMPONENT OF GRADIENT IS LARGER THAN  1.00

 CYCLE:   164 TIME:   1.136 TIME LEFT:  2.00D  GRAD.:    11.832 HEAT:  392.0560
 TEST ON GRADIENT SATISFIED
                    HOWEVER, A COMPONENT OF GRADIENT IS LARGER THAN  1.00

 CYCLE:   165 TIME:   2.268 TIME LEFT:  2.00D  GRAD.:    16.083 HEAT:  391.8967
 TEST ON GRADIENT SATISFIED
                    HOWEVER, A COMPONENT OF GRADIENT IS LARGER THAN  1.00

 CYCLE:   166 TIME:   1.129 TIME LEFT:  2.00D  GRAD.:    11.780 HEAT:  391.7712
 TEST ON GRADIENT SATISFIED
                    HOWEVER, A COMPONENT OF GRADIENT IS LARGER THAN  1.00

 CYCLE:   167 TIME:   1.703 TIME LEFT:  2.00D  GRAD.:    11.244 HEAT:  391.6048
 TEST ON GRADIENT SATISFIED
                    HOWEVER, A COMPONENT OF GRADIENT IS LARGER THAN  1.00

 CYCLE:   168 TIME:   1.701 TIME LEFT:  2.00D  GRAD.:    17.940 HEAT:  391.4496
 TEST ON GRADIENT SATISFIED
                    HOWEVER, A COMPONENT OF GRADIENT IS LARGER THAN  1.00

 CYCLE:   169 TIME:   1.116 TIME LEFT:  2.00D  GRAD.:     9.526 HEAT:  391.3200
 TEST ON GRADIENT SATISFIED
                    HOWEVER, A COMPONENT OF GRADIENT IS LARGER THAN  1.00

 CYCLE:   170 TIME:   2.258 TIME LEFT:  2.00D  GRAD.:    13.329 HEAT:  391.1745
 TEST ON GRADIENT SATISFIED
                    HOWEVER, A COMPONENT OF GRADIENT IS LARGER THAN  1.00

 CYCLE:   171 TIME:   1.139 TIME LEFT:  2.00D  GRAD.:    11.587 HEAT:  391.0679
 TEST ON GRADIENT SATISFIED
                    HOWEVER, A COMPONENT OF GRADIENT IS LARGER THAN  1.00

 CYCLE:   172 TIME:   1.695 TIME LEFT:  2.00D  GRAD.:    12.359 HEAT:  390.9338
 TEST ON GRADIENT SATISFIED
                    HOWEVER, A COMPONENT OF GRADIENT IS LARGER THAN  1.00

 CYCLE:   173 TIME:   1.136 TIME LEFT:  2.00D  GRAD.:    12.716 HEAT:  390.8188
 TEST ON GRADIENT SATISFIED
                    HOWEVER, A COMPONENT OF GRADIENT IS LARGER THAN  1.00

 CYCLE:   174 TIME:   1.696 TIME LEFT:  2.00D  GRAD.:    12.536 HEAT:  390.6621
 TEST ON GRADIENT SATISFIED
                    HOWEVER, A COMPONENT OF GRADIENT IS LARGER THAN  1.00

 CYCLE:   175 TIME:   1.129 TIME LEFT:  2.00D  GRAD.:     9.516 HEAT:  390.5408
 TEST ON GRADIENT SATISFIED
                    HOWEVER, A COMPONENT OF GRADIENT IS LARGER THAN  1.00

 CYCLE:   176 TIME:   1.707 TIME LEFT:  2.00D  GRAD.:    12.012 HEAT:  390.4087
 TEST ON GRADIENT SATISFIED
                    HOWEVER, A COMPONENT OF GRADIENT IS LARGER THAN  1.00

 CYCLE:   177 TIME:   1.713 TIME LEFT:  2.00D  GRAD.:    13.669 HEAT:  390.2769
 TEST ON GRADIENT SATISFIED
                    HOWEVER, A COMPONENT OF GRADIENT IS LARGER THAN  1.00

 CYCLE:   178 TIME:   1.131 TIME LEFT:  2.00D  GRAD.:     8.559 HEAT:  390.1667
 TEST ON GRADIENT SATISFIED
                    HOWEVER, A COMPONENT OF GRADIENT IS LARGER THAN  1.00

 CYCLE:   179 TIME:   1.122 TIME LEFT:  2.00D  GRAD.:     8.279 HEAT:  390.0676
 TEST ON GRADIENT SATISFIED
                    HOWEVER, A COMPONENT OF GRADIENT IS LARGER THAN  1.00

 CYCLE:   180 TIME:   1.702 TIME LEFT:  2.00D  GRAD.:    12.506 HEAT:  389.9619
 TEST ON GRADIENT SATISFIED
                    HOWEVER, A COMPONENT OF GRADIENT IS LARGER THAN  1.00

 CYCLE:   181 TIME:   1.122 TIME LEFT:  2.00D  GRAD.:     7.551 HEAT:  389.8688
 TEST ON GRADIENT SATISFIED
                    HOWEVER, A COMPONENT OF GRADIENT IS LARGER THAN  1.00

           THERE HAVE BEEN 3 ATTEMPTS TO REDUCE THE GRADIENT.
           DURING THESE ATTEMPTS THE ENERGY DROPPED BY LESS THAN 0.3 KCAL/MOLE
           FURTHER CALCULATION IS NOT JUSTIFIED AT THIS TIME.
           TO CONTINUE, START AGAIN WITH THE WORD "PRECISE"

 -------------------------------------------------------------------------------
PM7 BFGS CHARGE=0
 chassi-I-1-cd.xyz



     GRADIENT TEST NOT PASSED, BUT FURTHER WORK NOT JUSTIFIED 
     SCF FIELD WAS ACHIEVED                                   


                              PM7 CALCULATION
                                                       MOPAC2016 (Version: 16.035L)
                                                       Fri Apr 28 02:52:37 2017
                                                       No. of days remaining = 474




          FINAL HEAT OF FORMATION =        389.78876 KCAL/MOL =    1630.87618 KJ/MOL


          TOTAL ENERGY            =     -18201.66309 EV
          ELECTRONIC ENERGY       =    -343197.33501 EV  POINT GROUP:     C1  
          CORE-CORE REPULSION     =     324995.67192 EV
          COSMO AREA              =       1615.74 SQUARE ANGSTROMS
          COSMO VOLUME            =       2172.84 CUBIC ANGSTROMS

          GRADIENT NORM           =         13.72144
          IONIZATION POTENTIAL    =          7.882732 EV
          HOMO LUMO ENERGIES (EV) =         -7.883 -1.213
          NO. OF FILLED LEVELS    =        329
          MOLECULAR WEIGHT        =       1734.4134

          MOLECULAR DIMENSIONS (Angstroms)

            Atom       Atom       Distance
            H   197    H   177    32.01062
            H   188    H   181    30.21458
            H   172    H   184    14.28928


          SCF CALCULATIONS        =        266
 
          WALL-CLOCK TIME         =  4 MINUTES AND 31.507 SECONDS
          COMPUTATION TIME        =  4 MINUTES AND 29.564 SECONDS



       FINAL  POINT  AND  DERIVATIVES

   PARAMETER     ATOM    TYPE            VALUE       GRADIENT
      1          1  C    CARTESIAN X    -2.992057    -0.624563  KCAL/ANGSTROM
      2          1  C    CARTESIAN Y    -6.055778    -0.852766  KCAL/ANGSTROM
      3          1  C    CARTESIAN Z    -0.747993     0.192814  KCAL/ANGSTROM
      4          2  C    CARTESIAN X    -2.776375     0.077412  KCAL/ANGSTROM
      5          2  C    CARTESIAN Y    -4.685670     0.334619  KCAL/ANGSTROM
      6          2  C    CARTESIAN Z    -0.693062    -0.994955  KCAL/ANGSTROM
      7          3  C    CARTESIAN X    -2.733520    -0.029732  KCAL/ANGSTROM
      8          3  C    CARTESIAN Y    -4.027047    -0.109009  KCAL/ANGSTROM
      9          3  C    CARTESIAN Z     0.545116     0.781388  KCAL/ANGSTROM
     10          4  C    CARTESIAN X    -2.901967    -0.053705  KCAL/ANGSTROM
     11          4  C    CARTESIAN Y    -4.757050    -0.512454  KCAL/ANGSTROM
     12          4  C    CARTESIAN Z     1.730309    -0.465555  KCAL/ANGSTROM
     13          5  C    CARTESIAN X    -3.122605     0.342289  KCAL/ANGSTROM
     14          5  C    CARTESIAN Y    -6.127065     1.041632  KCAL/ANGSTROM
     15          5  C    CARTESIAN Z     1.685543     0.227162  KCAL/ANGSTROM
     16          6  C    CARTESIAN X    -3.174909     0.663114  KCAL/ANGSTROM
     17          6  C    CARTESIAN Y    -6.774968     0.189939  KCAL/ANGSTROM
     18          6  C    CARTESIAN Z     0.443000    -0.741529  KCAL/ANGSTROM
     19          7  C    CARTESIAN X    -2.515860    -0.051364  KCAL/ANGSTROM
     20          7  C    CARTESIAN Y    -2.640275    -0.218040  KCAL/ANGSTROM
     21          7  C    CARTESIAN Z     0.597980    -0.240878  KCAL/ANGSTROM
     22          8  N    CARTESIAN X    -3.439574    -0.282939  KCAL/ANGSTROM
     23          8  N    CARTESIAN Y    -8.160733    -0.305700  KCAL/ANGSTROM
     24          8  N    CARTESIAN Z     0.384400    -0.567753  KCAL/ANGSTROM
     25          9  C    CARTESIAN X    -2.318299    -0.394096  KCAL/ANGSTROM
     26          9  C    CARTESIAN Y    -1.438943     1.194759  KCAL/ANGSTROM
     27          9  C    CARTESIAN Z     0.648802    -0.173682  KCAL/ANGSTROM
     28         10  C    CARTESIAN X    -2.069693     0.824284  KCAL/ANGSTROM
     29         10  C    CARTESIAN Y    -0.108494     4.714771  KCAL/ANGSTROM
     30         10  C    CARTESIAN Z     0.704872     0.436099  KCAL/ANGSTROM
     31         11  C    CARTESIAN X    -1.823898    -1.219498  KCAL/ANGSTROM
     32         11  C    CARTESIAN Y     1.082093    -3.818430  KCAL/ANGSTROM
     33         11  C    CARTESIAN Z     0.750235    -0.658186  KCAL/ANGSTROM
     34         12  C    CARTESIAN X    -1.528496     0.529104  KCAL/ANGSTROM
     35         12  C    CARTESIAN Y     2.454153     0.718214  KCAL/ANGSTROM
     36         12  C    CARTESIAN Z     0.788838     0.495772  KCAL/ANGSTROM
     37         13  C    CARTESIAN X    -0.613344    -0.008124  KCAL/ANGSTROM
     38         13  C    CARTESIAN Y     2.953482    -0.041739  KCAL/ANGSTROM
     39         13  C    CARTESIAN Z     1.726118    -0.466276  KCAL/ANGSTROM
     40         14  C    CARTESIAN X    -0.310056     0.314269  KCAL/ANGSTROM
     41         14  C    CARTESIAN Y     4.308669     0.115286  KCAL/ANGSTROM
     42         14  C    CARTESIAN Z     1.750325     0.377863  KCAL/ANGSTROM
     43         15  C    CARTESIAN X    -0.922602     0.290510  KCAL/ANGSTROM
     44         15  C    CARTESIAN Y     5.166596    -0.006767  KCAL/ANGSTROM
     45         15  C    CARTESIAN Z     0.825580     0.299943  KCAL/ANGSTROM
     46         16  C    CARTESIAN X    -1.840721    -1.035040  KCAL/ANGSTROM
     47         16  C    CARTESIAN Y     4.674181     0.463294  KCAL/ANGSTROM
     48         16  C    CARTESIAN Z    -0.114526    -0.637679  KCAL/ANGSTROM
     49         17  C    CARTESIAN X    -2.143531     0.069025  KCAL/ANGSTROM
     50         17  C    CARTESIAN Y     3.320230    -0.438479  KCAL/ANGSTROM
     51         17  C    CARTESIAN Z    -0.126954    -0.529731  KCAL/ANGSTROM
     52         18  N    CARTESIAN X    -0.598069    -0.602364  KCAL/ANGSTROM
     53         18  N    CARTESIAN Y     6.542600    -0.439036  KCAL/ANGSTROM
     54         18  N    CARTESIAN Z     0.842961     0.116748  KCAL/ANGSTROM
     55         19  C    CARTESIAN X     0.707346    -0.291004  KCAL/ANGSTROM
     56         19  C    CARTESIAN Y     7.046703    -0.285440  KCAL/ANGSTROM
     57         19  C    CARTESIAN Z     0.664582     0.138772  KCAL/ANGSTROM
     58         20  C    CARTESIAN X     0.627840    -0.324035  KCAL/ANGSTROM
     59         20  C    CARTESIAN Y     8.450844    -0.131998  KCAL/ANGSTROM
     60         20  C    CARTESIAN Z     0.361097     0.026932  KCAL/ANGSTROM
     61         21  C    CARTESIAN X    -0.777853     0.466567  KCAL/ANGSTROM
     62         21  C    CARTESIAN Y     8.810314    -0.192793  KCAL/ANGSTROM
     63         21  C    CARTESIAN Z     0.382087    -0.368073  KCAL/ANGSTROM
     64         22  C    CARTESIAN X    -1.510263     0.466945  KCAL/ANGSTROM
     65         22  C    CARTESIAN Y     7.592463     0.114291  KCAL/ANGSTROM
     66         22  C    CARTESIAN Z     0.617624     0.019085  KCAL/ANGSTROM
     67         23  C    CARTESIAN X    -4.284081    -0.261098  KCAL/ANGSTROM
     68         23  C    CARTESIAN Y    -8.769122     0.159182  KCAL/ANGSTROM
     69         23  C    CARTESIAN Z    -0.566618     0.298954  KCAL/ANGSTROM
     70         24  C    CARTESIAN X    -4.118240    -0.308151  KCAL/ANGSTROM
     71         24  C    CARTESIAN Y   -10.196953     0.080357  KCAL/ANGSTROM
     72         24  C    CARTESIAN Z    -0.489757     0.437360  KCAL/ANGSTROM
     73         25  C    CARTESIAN X    -3.131246    -0.566668  KCAL/ANGSTROM
     74         25  C    CARTESIAN Y   -10.447274     0.095140  KCAL/ANGSTROM
     75         25  C    CARTESIAN Z     0.538974     0.009472  KCAL/ANGSTROM
     76         26  C    CARTESIAN X    -2.730062     0.430833  KCAL/ANGSTROM
     77         26  C    CARTESIAN Y    -9.168384    -0.087991  KCAL/ANGSTROM
     78         26  C    CARTESIAN Z     1.065287     0.545710  KCAL/ANGSTROM
     79         27  C    CARTESIAN X    -5.235583    -0.224844  KCAL/ANGSTROM
     80         27  C    CARTESIAN Y    -8.161926    -0.209117  KCAL/ANGSTROM
     81         27  C    CARTESIAN Z    -1.375859    -0.395539  KCAL/ANGSTROM
     82         28  C    CARTESIAN X    -6.012317     0.328812  KCAL/ANGSTROM
     83         28  C    CARTESIAN Y    -8.967212    -0.042216  KCAL/ANGSTROM
     84         28  C    CARTESIAN Z    -2.216183    -0.111620  KCAL/ANGSTROM
     85         29  C    CARTESIAN X    -5.753234    -0.245104  KCAL/ANGSTROM
     86         29  C    CARTESIAN Y   -10.338767     0.054483  KCAL/ANGSTROM
     87         29  C    CARTESIAN Z    -2.270368    -0.585945  KCAL/ANGSTROM
     88         30  C    CARTESIAN X    -4.904511     0.120916  KCAL/ANGSTROM
     89         30  C    CARTESIAN Y   -10.963155    -0.341049  KCAL/ANGSTROM
     90         30  C    CARTESIAN Z    -1.322155    -0.023033  KCAL/ANGSTROM
     91         31  C    CARTESIAN X    -2.499695     0.512704  KCAL/ANGSTROM
     92         31  C    CARTESIAN Y   -11.558744     0.089595  KCAL/ANGSTROM
     93         31  C    CARTESIAN Z     1.049427     0.196778  KCAL/ANGSTROM
     94         32  C    CARTESIAN X    -1.596191    -0.041188  KCAL/ANGSTROM
     95         32  C    CARTESIAN Y   -11.448767    -0.348718  KCAL/ANGSTROM
     96         32  C    CARTESIAN Z     2.135560     0.175409  KCAL/ANGSTROM
     97         33  C    CARTESIAN X    -1.161738    -0.078093  KCAL/ANGSTROM
     98         33  C    CARTESIAN Y   -10.189737    -0.397484  KCAL/ANGSTROM
     99         33  C    CARTESIAN Z     2.576044    -0.056564  KCAL/ANGSTROM
    100         34  C    CARTESIAN X    -1.754874    -0.510772  KCAL/ANGSTROM
    101         34  C    CARTESIAN Y    -9.037022     0.703974  KCAL/ANGSTROM
    102         34  C    CARTESIAN Z     2.043903    -0.103767  KCAL/ANGSTROM
    103         35  C    CARTESIAN X    -1.517664    -0.835866  KCAL/ANGSTROM
    104         35  C    CARTESIAN Y     9.967063     0.392785  KCAL/ANGSTROM
    105         35  C    CARTESIAN Z     0.261892     0.020272  KCAL/ANGSTROM
    106         36  C    CARTESIAN X    -2.935639     0.295035  KCAL/ANGSTROM
    107         36  C    CARTESIAN Y     9.936249     0.526745  KCAL/ANGSTROM
    108         36  C    CARTESIAN Z     0.326802     0.365632  KCAL/ANGSTROM
    109         37  C    CARTESIAN X    -3.613667     0.032384  KCAL/ANGSTROM
    110         37  C    CARTESIAN Y     8.711592    -0.070936  KCAL/ANGSTROM
    111         37  C    CARTESIAN Z     0.341610     0.190814  KCAL/ANGSTROM
    112         38  C    CARTESIAN X    -2.894934    -0.733300  KCAL/ANGSTROM
    113         38  C    CARTESIAN Y     7.533779    -0.990820  KCAL/ANGSTROM
    114         38  C    CARTESIAN Z     0.590110     0.160286  KCAL/ANGSTROM
    115         39  C    CARTESIAN X     1.908408    -0.168633  KCAL/ANGSTROM
    116         39  C    CARTESIAN Y     6.357252    -0.407806  KCAL/ANGSTROM
    117         39  C    CARTESIAN Z     0.694090    -0.281496  KCAL/ANGSTROM
    118         40  C    CARTESIAN X     3.109271     0.203712  KCAL/ANGSTROM
    119         40  C    CARTESIAN Y     7.047479    -0.128233  KCAL/ANGSTROM
    120         40  C    CARTESIAN Z     0.461214    -0.040068  KCAL/ANGSTROM
    121         41  C    CARTESIAN X     3.065042    -0.208402  KCAL/ANGSTROM
    122         41  C    CARTESIAN Y     8.420260    -0.664448  KCAL/ANGSTROM
    123         41  C    CARTESIAN Z     0.186329     0.285161  KCAL/ANGSTROM
    124         42  C    CARTESIAN X     1.812993    -0.057060  KCAL/ANGSTROM
    125         42  C    CARTESIAN Y     9.081721    -0.484824  KCAL/ANGSTROM
    126         42  C    CARTESIAN Z     0.057361    -0.290242  KCAL/ANGSTROM
    127         43  C    CARTESIAN X    -1.030472     0.629499  KCAL/ANGSTROM
    128         43  C    CARTESIAN Y    11.352474     0.007273  KCAL/ANGSTROM
    129         43  C    CARTESIAN Z    -0.006339     0.988495  KCAL/ANGSTROM
    130         44  C    CARTESIAN X    -2.320233     0.433899  KCAL/ANGSTROM
    131         44  C    CARTESIAN Y    12.200325    -0.494080  KCAL/ANGSTROM
    132         44  C    CARTESIAN Z    -0.213828     1.319620  KCAL/ANGSTROM
    133         45  C    CARTESIAN X    -3.465539     0.436471  KCAL/ANGSTROM
    134         45  C    CARTESIAN Y    11.288663    -0.423546  KCAL/ANGSTROM
    135         45  C    CARTESIAN Z     0.198249     0.191717  KCAL/ANGSTROM
    136         46  C    CARTESIAN X     4.124618     0.133193  KCAL/ANGSTROM
    137         46  C    CARTESIAN Y     9.334922     0.733794  KCAL/ANGSTROM
    138         46  C    CARTESIAN Z    -0.241900    -0.587918  KCAL/ANGSTROM
    139         47  C    CARTESIAN X     3.467431     0.373331  KCAL/ANGSTROM
    140         47  C    CARTESIAN Y    10.459086     0.028197  KCAL/ANGSTROM
    141         47  C    CARTESIAN Z    -1.033074     0.038206  KCAL/ANGSTROM
    142         48  C    CARTESIAN X     1.987168     0.586625  KCAL/ANGSTROM
    143         48  C    CARTESIAN Y    10.434713    -0.280164  KCAL/ANGSTROM
    144         48  C    CARTESIAN Z    -0.547153     0.324757  KCAL/ANGSTROM
    145         49  C    CARTESIAN X    -6.377722     0.049257  KCAL/ANGSTROM
    146         49  C    CARTESIAN Y   -11.379637    -0.277655  KCAL/ANGSTROM
    147         49  C    CARTESIAN Z    -3.090000     0.241265  KCAL/ANGSTROM
    148         50  C    CARTESIAN X    -6.403968    -0.021068  KCAL/ANGSTROM
    149         50  C    CARTESIAN Y   -12.626499    -0.230110  KCAL/ANGSTROM
    150         50  C    CARTESIAN Z    -2.219353    -0.300504  KCAL/ANGSTROM
    151         51  C    CARTESIAN X    -5.123282     0.173306  KCAL/ANGSTROM
    152         51  C    CARTESIAN Y   -12.445096    -0.037352  KCAL/ANGSTROM
    153         51  C    CARTESIAN Z    -1.336927     0.031057  KCAL/ANGSTROM
    154         52  C    CARTESIAN X    -2.552777    -0.260842  KCAL/ANGSTROM
    155         52  C    CARTESIAN Y   -12.959051     0.045265  KCAL/ANGSTROM
    156         52  C    CARTESIAN Z     0.537672     0.019238  KCAL/ANGSTROM
    157         53  C    CARTESIAN X    -1.451582     0.010467  KCAL/ANGSTROM
    158         53  C    CARTESIAN Y   -13.717910    -0.355960  KCAL/ANGSTROM
    159         53  C    CARTESIAN Z     1.343555    -0.171956  KCAL/ANGSTROM
    160         54  C    CARTESIAN X    -1.117374     0.008841  KCAL/ANGSTROM
    161         54  C    CARTESIAN Y   -12.780782     0.777291  KCAL/ANGSTROM
    162         54  C    CARTESIAN Z     2.496615    -0.139279  KCAL/ANGSTROM
    163         55  C    CARTESIAN X    -6.690474    -0.102637  KCAL/ANGSTROM
    164         55  C    CARTESIAN Y   -11.339667    -0.183191  KCAL/ANGSTROM
    165         55  C    CARTESIAN Z    -4.396307    -0.136568  KCAL/ANGSTROM
    166         56  C    CARTESIAN X    -0.552034     0.257637  KCAL/ANGSTROM
    167         56  C    CARTESIAN Y   -13.178870    -0.523419  KCAL/ANGSTROM
    168         56  C    CARTESIAN Z     3.656494     0.591079  KCAL/ANGSTROM
    169         57  C    CARTESIAN X    -4.713068    -0.994861  KCAL/ANGSTROM
    170         57  C    CARTESIAN Y    11.745946     0.413531  KCAL/ANGSTROM
    171         57  C    CARTESIAN Z     0.442626    -0.038719  KCAL/ANGSTROM
    172         58  C    CARTESIAN X     5.450604     0.081814  KCAL/ANGSTROM
    173         58  C    CARTESIAN Y     9.309098     0.008994  KCAL/ANGSTROM
    174         58  C    CARTESIAN Z     0.010077    -0.005243  KCAL/ANGSTROM
    175         59  C    CARTESIAN X    -2.009439     0.089813  KCAL/ANGSTROM
    176         59  C    CARTESIAN Y   -15.057531    -0.146979  KCAL/ANGSTROM
    177         59  C    CARTESIAN Z     1.817638    -0.383691  KCAL/ANGSTROM
    178         60  C    CARTESIAN X    -7.665531    -0.376120  KCAL/ANGSTROM
    179         60  C    CARTESIAN Y   -12.664264    -0.088995  KCAL/ANGSTROM
    180         60  C    CARTESIAN Z    -1.359638     0.263001  KCAL/ANGSTROM
    181         61  C    CARTESIAN X    -2.280056    -0.916931  KCAL/ANGSTROM
    182         61  C    CARTESIAN Y    13.456496     0.197105  KCAL/ANGSTROM
    183         61  C    CARTESIAN Z     0.653490    -1.253207  KCAL/ANGSTROM
    184         62  C    CARTESIAN X     4.074311    -0.708870  KCAL/ANGSTROM
    185         62  C    CARTESIAN Y    11.828334    -1.018034  KCAL/ANGSTROM
    186         62  C    CARTESIAN Z    -0.743272     0.018591  KCAL/ANGSTROM
    187         63  C    CARTESIAN X    -7.547114     0.234249  KCAL/ANGSTROM
    188         63  C    CARTESIAN Y   -12.279399    -0.186621  KCAL/ANGSTROM
    189         63  C    CARTESIAN Z    -5.146811    -0.196868  KCAL/ANGSTROM
    190         64  C    CARTESIAN X    -7.724151     0.032445  KCAL/ANGSTROM
    191         64  C    CARTESIAN Y   -11.787023    -0.544806  KCAL/ANGSTROM
    192         64  C    CARTESIAN Z    -6.475199    -0.346223  KCAL/ANGSTROM
    193         65  C    CARTESIAN X    -6.918823     0.085154  KCAL/ANGSTROM
    194         65  C    CARTESIAN Y   -10.580081    -0.328864  KCAL/ANGSTROM
    195         65  C    CARTESIAN Z    -6.624622     0.557852  KCAL/ANGSTROM
    196         66  C    CARTESIAN X    -6.270033    -0.281920  KCAL/ANGSTROM
    197         66  C    CARTESIAN Y   -10.324930     0.086454  KCAL/ANGSTROM
    198         66  C    CARTESIAN Z    -5.383190    -0.002030  KCAL/ANGSTROM
    199         67  C    CARTESIAN X     0.425578    -0.966545  KCAL/ANGSTROM
    200         67  C    CARTESIAN Y   -14.261009     0.642061  KCAL/ANGSTROM
    201         67  C    CARTESIAN Z     3.856585     0.016079  KCAL/ANGSTROM
    202         68  C    CARTESIAN X     0.801019     0.791575  KCAL/ANGSTROM
    203         68  C    CARTESIAN Y   -14.306726    -0.101967  KCAL/ANGSTROM
    204         68  C    CARTESIAN Z     5.233520    -0.089418  KCAL/ANGSTROM
    205         69  C    CARTESIAN X     0.018945     0.296589  KCAL/ANGSTROM
    206         69  C    CARTESIAN Y   -13.303424    -0.043593  KCAL/ANGSTROM
    207         69  C    CARTESIAN Z     5.948608     0.142649  KCAL/ANGSTROM
    208         70  C    CARTESIAN X    -0.797788     0.171081  KCAL/ANGSTROM
    209         70  C    CARTESIAN Y   -12.624449     0.241149  KCAL/ANGSTROM
    210         70  C    CARTESIAN Z     4.997678     0.146567  KCAL/ANGSTROM
    211         71  C    CARTESIAN X    -6.705896     0.060682  KCAL/ANGSTROM
    212         71  C    CARTESIAN Y    -9.774703    -0.524856  KCAL/ANGSTROM
    213         71  C    CARTESIAN Z    -7.726436     0.058169  KCAL/ANGSTROM
    214         72  C    CARTESIAN X    -5.812636     0.505930  KCAL/ANGSTROM
    215         72  C    CARTESIAN Y    -8.703115     0.152773  KCAL/ANGSTROM
    216         72  C    CARTESIAN Z    -7.604227     0.155850  KCAL/ANGSTROM
    217         73  C    CARTESIAN X    -5.131466    -0.497153  KCAL/ANGSTROM
    218         73  C    CARTESIAN Y    -8.481103     0.593948  KCAL/ANGSTROM
    219         73  C    CARTESIAN Z    -6.411976    -0.075365  KCAL/ANGSTROM
    220         74  C    CARTESIAN X    -5.339087     0.242763  KCAL/ANGSTROM
    221         74  C    CARTESIAN Y    -9.303892     0.050596  KCAL/ANGSTROM
    222         74  C    CARTESIAN Z    -5.297855    -0.391788  KCAL/ANGSTROM
    223         75  C    CARTESIAN X    -8.208599    -0.229569  KCAL/ANGSTROM
    224         75  C    CARTESIAN Y   -13.429828    -0.249243  KCAL/ANGSTROM
    225         75  C    CARTESIAN Z    -4.758559     0.164212  KCAL/ANGSTROM
    226         76  C    CARTESIAN X    -9.038848     0.339277  KCAL/ANGSTROM
    227         76  C    CARTESIAN Y   -14.079342     0.188172  KCAL/ANGSTROM
    228         76  C    CARTESIAN Z    -5.682393     0.454395  KCAL/ANGSTROM
    229         77  C    CARTESIAN X    -9.209724     0.048191  KCAL/ANGSTROM
    230         77  C    CARTESIAN Y   -13.587349     0.576638  KCAL/ANGSTROM
    231         77  C    CARTESIAN Z    -6.971674    -0.504240  KCAL/ANGSTROM
    232         78  C    CARTESIAN X    -8.544332    -0.114970  KCAL/ANGSTROM
    233         78  C    CARTESIAN Y   -12.426094     0.241585  KCAL/ANGSTROM
    234         78  C    CARTESIAN Z    -7.383398    -0.600863  KCAL/ANGSTROM
    235         79  C    CARTESIAN X     1.073550     0.403625  KCAL/ANGSTROM
    236         79  C    CARTESIAN Y   -15.079216    -0.510894  KCAL/ANGSTROM
    237         79  C    CARTESIAN Z     2.947298    -0.038447  KCAL/ANGSTROM
    238         80  C    CARTESIAN X     2.042920    -0.164587  KCAL/ANGSTROM
    239         80  C    CARTESIAN Y   -15.976566     0.076378  KCAL/ANGSTROM
    240         80  C    CARTESIAN Z     3.412455    -0.024715  KCAL/ANGSTROM
    241         81  C    CARTESIAN X     2.375828     0.368308  KCAL/ANGSTROM
    242         81  C    CARTESIAN Y   -16.040647     0.260724  KCAL/ANGSTROM
    243         81  C    CARTESIAN Z     4.761541     0.166937  KCAL/ANGSTROM
    244         82  C    CARTESIAN X     1.760055     0.003841  KCAL/ANGSTROM
    245         82  C    CARTESIAN Y   -15.190478    -0.196024  KCAL/ANGSTROM
    246         82  C    CARTESIAN Z     5.688251     0.391317  KCAL/ANGSTROM
    247         83  C    CARTESIAN X    -0.055773     0.211147  KCAL/ANGSTROM
    248         83  C    CARTESIAN Y   -13.002901     0.055459  KCAL/ANGSTROM
    249         83  C    CARTESIAN Z     7.294758    -0.144593  KCAL/ANGSTROM
    250         84  C    CARTESIAN X    -0.980492     0.379656  KCAL/ANGSTROM
    251         84  C    CARTESIAN Y   -12.037140    -0.509478  KCAL/ANGSTROM
    252         84  C    CARTESIAN Z     7.710612    -0.083773  KCAL/ANGSTROM
[...]
   92          C          -0.037461        4.0375     1.06684     2.97062
   93          C          -0.032059        4.0321     1.06729     2.96477
   94          C           0.009148        3.9909     1.07136     2.91949
   95          C          -0.139263        4.1393     1.08012     3.05915
   96          C          -0.156710        4.1567     1.08173     3.07498
   97          C          -0.142961        4.1430     1.08264     3.06032
   98          C          -0.169131        4.1691     1.07969     3.08944
   99          C          -0.157713        4.1577     1.08181     3.07591
  100          C          -0.141678        4.1417     1.08213     3.05955
  101          C          -0.155423        4.1554     1.08123     3.07419
  102          C          -0.138154        4.1382     1.07990     3.05825
  103          C          -0.172298        4.1723     1.07922     3.09308
  104          C          -0.141430        4.1414     1.08233     3.05910
  105          C          -0.160915        4.1609     1.08113     3.07979
  106          C          -0.134570        4.1346     1.08036     3.05421
  107          C          -0.140742        4.1407     1.07976     3.06099
  108          C          -0.156809        4.1568     1.08086     3.07595
  109          C          -0.142088        4.1421     1.08230     3.05979
  110          C          -0.166923        4.1669     1.08130     3.08563
  111          C          -0.444001        4.4440     1.05244     3.39156
  112          C          -0.247935        4.2479     1.05443     3.19351
  113          C          -0.275883        4.2759     1.06085     3.21503
  114          C          -0.270203        4.2702     1.05949     3.21071
  115          C          -0.253023        4.2530     1.06052     3.19250
  116          C          -0.299462        4.2995     1.05887     3.24059
  117          C          -0.441874        4.4419     1.05201     3.38987
  118          C          -0.252633        4.2526     1.05566     3.19697
  119          C          -0.271200        4.2712     1.05988     3.21132
  120          C          -0.273872        4.2739     1.06070     3.21318
  121          C          -0.250730        4.2507     1.05949     3.19124
  122          C          -0.306899        4.3069     1.05981     3.24709
  123          C          -0.442152        4.4422     1.05228     3.38987
  124          C          -0.255981        4.2560     1.05595     3.20004
  125          C          -0.268584        4.2686     1.06039     3.20819
  126          C          -0.274726        4.2747     1.06004     3.21468
  127          C          -0.248926        4.2489     1.05981     3.18911
  128          C          -0.303308        4.3033     1.06026     3.24305
  129          C          -0.442049        4.4420     1.05233     3.38972
  130          C          -0.250483        4.2505     1.05563     3.19485
  131          C          -0.275446        4.2754     1.06040     3.21505
  132          C          -0.278142        4.2781     1.06069     3.21745
  133          C          -0.255974        4.2560     1.05864     3.19734
  134          C          -0.299907        4.2999     1.05841     3.24150
  135          H           0.179215        0.8208     0.82079
  136          H           0.162887        0.8371     0.83711
  137          H           0.163257        0.8367     0.83674
  138          H           0.176602        0.8234     0.82340
  139          H           0.163510        0.8365     0.83649
  140          H           0.176215        0.8238     0.82379
  141          H           0.176525        0.8235     0.82348
  142          H           0.164737        0.8353     0.83526
  143          H           0.176374        0.8236     0.82363
  144          H           0.176357        0.8236     0.82364
  145          H           0.178779        0.8212     0.82122
  146          H           0.173867        0.8261     0.82613
  147          H           0.153621        0.8464     0.84638
  148          H           0.167068        0.8329     0.83293
  149          H           0.146993        0.8530     0.85301
  150          H           0.148552        0.8514     0.85145
  151          H           0.153641        0.8464     0.84636
  152          H           0.165712        0.8343     0.83429
  153          H           0.146840        0.8532     0.85316
  154          H           0.157926        0.8421     0.84207
  155          H           0.157966        0.8420     0.84203
  156          H           0.157578        0.8424     0.84242
  157          H           0.163152        0.8368     0.83685
  158          H           0.149699        0.8503     0.85030
  159          H           0.156917        0.8431     0.84308
  160          H           0.159386        0.8406     0.84061
  161          H           0.143531        0.8565     0.85647
  162          H           0.158614        0.8414     0.84139
  163          H           0.144843        0.8552     0.85516
  164          H           0.152420        0.8476     0.84758
  165          H           0.158433        0.8416     0.84157
  166          H           0.160604        0.8394     0.83940
  167          H           0.142933        0.8571     0.85707
  168          H           0.157684        0.8423     0.84232
  169          H           0.142765        0.8572     0.85723
  170          H           0.160124        0.8399     0.83988
  171          H           0.152239        0.8478     0.84776
  172          H           0.145458        0.8545     0.85454
  173          H           0.146498        0.8535     0.85350
  174          H           0.168204        0.8318     0.83180
  175          H           0.156512        0.8435     0.84349
  176          H           0.144827        0.8552     0.85517
  177          H           0.146785        0.8532     0.85322
  178          H           0.153682        0.8463     0.84632
  179          H           0.154564        0.8454     0.84544
  180          H           0.145087        0.8549     0.85491
  181          H           0.146746        0.8533     0.85325
  182          H           0.152599        0.8474     0.84740
  183          H           0.151196        0.8488     0.84880
  184          H           0.145113        0.8549     0.85489
  185          H           0.146122        0.8539     0.85388
  186          H           0.166210        0.8338     0.83379
  187          H           0.153009        0.8470     0.84699
  188          H           0.146995        0.8530     0.85301
  189          H           0.144696        0.8553     0.85530
  190          H           0.153054        0.8469     0.84695
  191          H           0.166351        0.8336     0.83365
  192          H           0.147460        0.8525     0.85254
  193          H           0.145424        0.8546     0.85458
  194          H           0.150499        0.8495     0.84950
  195          H           0.155215        0.8448     0.84478
  196          H           0.145979        0.8540     0.85402
  197          H           0.147385        0.8526     0.85262
  198          H           0.154306        0.8457     0.84569
  199          H           0.153001        0.8470     0.84700
  200          H           0.146469        0.8535     0.85353
  201          H           0.146213        0.8538     0.85379
  202          H           0.165139        0.8349     0.83486
  203          H           0.136205        0.8638     0.86379
  204          H           0.141229        0.8588     0.85877
  205          H           0.150740        0.8493     0.84926
  206          H           0.131951        0.8680     0.86805
  207          H           0.129453        0.8705     0.87055
  208          H           0.135370        0.8646     0.86463
  209          H           0.149062        0.8509     0.85094
  210          H           0.136899        0.8631     0.86310
  211          H           0.132076        0.8679     0.86792
  212          H           0.135831        0.8642     0.86417
  213          H           0.145136        0.8549     0.85486
  214          H           0.174700        0.8253     0.82530
  215          H           0.150127        0.8499     0.84987
  216          H           0.139408        0.8606     0.86059
  217          H           0.141068        0.8589     0.85893
  218          H           0.142694        0.8573     0.85731
  219          H           0.135578        0.8644     0.86442
  220          H           0.132779        0.8672     0.86722
  221          H           0.134274        0.8657     0.86573
  222          H           0.136694        0.8633     0.86331
  223          H           0.141478        0.8585     0.85852
  224          H           0.136369        0.8636     0.86363
  225          H           0.135251        0.8647     0.86475
  226          H           0.143065        0.8569     0.85693
  227          H           0.172953        0.8270     0.82705
  228          H           0.168318        0.8317     0.83168
  229          H           0.139683        0.8603     0.86032
  230          H           0.142716        0.8573     0.85728
  231          H           0.140450        0.8596     0.85955
  232          H           0.133479        0.8665     0.86652
  233          H           0.135858        0.8641     0.86414
  234          H           0.139079        0.8609     0.86092
  235          H           0.134891        0.8651     0.86511
  236          H           0.131991        0.8680     0.86801
  237          H           0.143359        0.8566     0.85664
  238          H           0.137538        0.8625     0.86246
  239          H           0.138679        0.8613     0.86132
  240          H           0.171955        0.8280     0.82805
  241          H           0.167015        0.8330     0.83299
  242          H           0.136108        0.8639     0.86389
  243          H           0.147175        0.8528     0.85283
  244          H           0.138782        0.8612     0.86122
  245          H           0.130584        0.8694     0.86942
  246          H           0.136226        0.8638     0.86377
  247          H           0.147690        0.8523     0.85231
  248          H           0.133099        0.8669     0.86690
  249          H           0.131640        0.8684     0.86836
  250          H           0.146094        0.8539     0.85391
  251          H           0.151502        0.8485     0.84850
  252          H           0.137811        0.8622     0.86219
  253          H           0.148817        0.8512     0.85118
  254          H           0.171139        0.8289     0.82886
 DIPOLE           X         Y         Z       TOTAL
 POINT-CHG.    -0.384    -0.310    -1.349     1.436
 HYBRID        -0.134     0.056     0.216     0.260
 SUM           -0.518    -0.254    -1.133     1.271


          ATOMIC ORBITAL ELECTRON POPULATIONS

     Atom    s        px        py        pz   
    1  C   1.08394   1.04875   1.01307   1.06572
    2  C   1.08609   0.95921   1.00039   1.04665
    3  C   1.03814   1.04633   0.94109   0.98964
    4  C   1.08591   0.95766   0.99320   1.05445
    5  C   1.08250   1.05424   1.01417   1.05599
    6  C   1.05408   0.96264   0.79559   0.98140
    7  C   1.09175   0.99330   0.96889   0.99098
    8  N   1.52854   1.37643   1.09121   1.35907
    9  C   1.05584   1.01833   0.95208   1.02041
   10  C   1.05560   1.01637   0.95271   1.02028
   11  C   1.09117   0.99270   0.97066   0.99235
   12  C   1.03819   1.01726   0.94271   1.01586
   13  C   1.08634   0.98160   1.01362   1.01163
   14  C   1.08286   1.07590   0.99855   1.04648
   15  C   1.05467   0.97725   0.79814   0.96512
   16  C   1.08346   1.05358   1.03172   1.04418
   17  C   1.08594   1.00924   0.98154   1.01238
   18  N   1.53489   1.11313   1.09444   1.61474
   19  C   1.06666   0.83824   0.94847   0.93886
   20  C   1.04973   0.97312   0.98361   1.12382
   21  C   1.04968   0.96835   0.98136   1.13589
   22  C   1.06741   0.92494   0.86153   0.93761
   23  C   1.06697   0.91370   0.93224   0.88856
   24  C   1.04935   1.05755   0.97362   1.04586
   25  C   1.04871   1.06165   0.97799   1.04916
   26  C   1.06623   0.92108   0.86286   0.93538
   27  C   1.07164   1.05044   1.10173   1.07390
   28  C   1.07392   0.93247   0.95233   0.93062
   29  C   1.06084   1.06564   0.98015   1.03823
   30  C   1.07487   0.93676   0.96862   0.93102
   31  C   1.07524   0.92947   0.95762   0.93705
   32  C   1.06024   1.07476   0.97791   1.05082
   33  C   1.07584   0.92479   0.94673   0.92041
   34  C   1.06924   1.06699   1.09038   1.07926
   35  C   1.07589   0.96871   0.95468   0.90049
   36  C   1.05967   0.98281   0.97767   1.13600
   37  C   1.07617   0.97454   0.94808   0.87293
   38  C   1.07067   0.98847   1.09052   1.15597
   39  C   1.07252   0.97548   1.09858   1.15994
   40  C   1.07618   0.96733   0.95005   0.87867
   41  C   1.06011   0.97948   0.98411   1.12495
   42  C   1.07604   0.95762   0.96309   0.91014
   43  C   1.06531   1.06640   1.00449   1.16192
   44  C   1.06429   0.95377   0.98005   1.08711
   45  C   1.08707   0.95938   0.95644   0.90556
   46  C   1.08815   0.95756   0.93517   0.93222
   47  C   1.06513   0.95729   0.96952   1.08943
   48  C   1.06601   1.04900   1.05342   1.12852
   49  C   1.08526   0.91245   0.96822   0.95774
   50  C   1.06705   0.96519   1.04676   1.00419
   51  C   1.06661   1.07194   1.02253   1.13008
   52  C   1.06599   1.10468   1.00899   1.11691
   53  C   1.06496   1.03808   0.97168   1.00694
   54  C   1.08845   0.89910   0.95556   0.96330
   55  C   1.06042   1.05418   1.01917   0.97501
   56  C   1.05802   1.05622   1.04076   0.97743
   57  C   1.05846   0.99377   1.03330   1.04454
   58  C   1.05812   0.97211   1.08941   0.99849
   59  C   1.05540   1.17452   1.06199   1.16356
   60  C   1.05454   1.07748   1.18175   1.13522
   61  C   1.05555   1.18465   1.07372   1.13922
   62  C   1.05535   1.16501   1.05023   1.18544
   63  C   1.07110   0.97950   0.96985   0.97512
   64  C   1.06790   0.99122   0.98254   0.98868
   65  C   1.06692   0.99690   0.98069   0.99016
   66  C   1.07068   0.98705   0.97270   0.97269
   67  C   1.07099   0.97605   0.96245   0.97961
   68  C   1.06748   0.99153   0.98850   0.98543
   69  C   1.06663   0.99754   0.99177   0.97994
   70  C   1.07092   0.98217   0.97920   0.96099
   71  C   1.07947   1.01523   0.99267   1.05271
   72  C   1.08173   1.00071   1.02403   1.04510
   73  C   1.08260   1.03347   1.04406   0.98490
   74  C   1.08288   1.01503   0.99042   1.06180
   75  C   1.08004   1.00404   1.00869   1.07140
   76  C   1.08247   1.01376   1.05271   0.99318
   77  C   1.08157   1.03286   1.01233   1.02590
   78  C   1.08002   0.99544   1.00191   1.06483
   79  C   1.07935   1.00734   1.00674   1.07476
   80  C   1.08247   1.00915   1.02567   1.02484
   81  C   1.08129   1.04453   1.03659   0.99475
   82  C   1.08007   0.99676   0.99004   1.07149
   83  C   1.07960   1.02327   1.01356   1.02138
   84  C   1.08111   0.99879   1.00481   1.07232
   85  C   1.08249   1.03280   1.03601   0.99190
   86  C   1.08200   1.03083   1.02389   1.02594
   87  C   1.07226   0.97219   0.97516   0.97245
   88  C   1.06716   0.98472   1.00186   0.97836
   89  C   1.06698   0.98911   1.00680   0.97414
   90  C   1.07068   0.97281   0.97259   0.96648
   91  C   1.07038   0.96606   0.98173   0.97708
   92  C   1.06684   0.98921   0.99153   0.98988
   93  C   1.06729   0.98787   0.98743   0.98947
   94  C   1.07136   0.97989   0.96111   0.97850
   95  C   1.08012   1.06714   0.98939   1.00262
   96  C   1.08173   1.02432   1.03885   1.01181
   97  C   1.08264   0.99376   1.02640   1.04015
   98  C   1.07969   1.07213   1.00589   1.01142
   99  C   1.08181   1.06214   1.02375   0.99003
  100  C   1.08213   0.98528   1.03734   1.03693
  101  C   1.08123   1.04325   1.00192   1.02902
  102  C   1.07990   1.05151   1.01689   0.98986
  103  C   1.07922   1.05863   1.02812   1.00633
  104  C   1.08233   0.98275   1.00801   1.06835
  105  C   1.08113   1.05227   1.01915   1.00837
  106  C   1.08036   1.05467   0.99546   1.00409
  107  C   1.07976   1.07328   1.00139   0.98632
  108  C   1.08086   1.02116   1.01644   1.03835
  109  C   1.08230   0.99541   1.00948   1.05490
  110  C   1.08130   1.08314   1.01830   0.98419
  111  C   1.05244   1.17387   1.10263   1.11505
  112  C   1.05443   1.08852   1.06202   1.04296
  113  C   1.06085   1.10203   1.06795   1.04506
  114  C   1.05949   1.05730   1.08621   1.06719
  115  C   1.06052   0.97178   1.15508   1.06564
  116  C   1.05887   0.98596   1.13573   1.11891
  117  C   1.05201   1.11702   1.10241   1.17043
  118  C   1.05566   1.04696   1.07346   1.07655
  119  C   1.05988   1.04925   1.08441   1.07766
  120  C   1.06070   1.04054   1.08690   1.08574
  121  C   1.05949   1.02797   1.07624   1.08702
  122  C   1.05981   1.03630   1.12258   1.08822
  123  C   1.05228   1.15716   1.07289   1.15982
  124  C   1.05595   1.01957   1.03745   1.14302
  125  C   1.06039   1.01141   1.08852   1.10827
  126  C   1.06004   1.02249   1.09423   1.09796
  127  C   1.05981   1.02736   1.10098   1.06077
  128  C   1.06026   1.01217   1.14554   1.08534
  129  C   1.05233   1.11588   1.16372   1.11012
  130  C   1.05563   0.99286   1.13666   1.06533
  131  C   1.06040   0.99217   1.15717   1.06571
  132  C   1.06069   0.99243   1.13679   1.08824
  133  C   1.05864   0.99857   1.17020   1.02857
  134  C   1.05841   1.04156   1.11285   1.08708
  135  H   0.82079
  136  H   0.83711
  137  H   0.83674
  138  H   0.82340
  139  H   0.83649
  140  H   0.82379
  141  H   0.82348
  142  H   0.83526
  143  H   0.82363
  144  H   0.82364
  145  H   0.82122
  146  H   0.82613
  147  H   0.84638
  148  H   0.83293
  149  H   0.85301
  150  H   0.85145
  151  H   0.84636
  152  H   0.83429
  153  H   0.85316
  154  H   0.84207
  155  H   0.84203
  156  H   0.84242
  157  H   0.83685
  158  H   0.85030
  159  H   0.84308
  160  H   0.84061
  161  H   0.85647
  162  H   0.84139
  163  H   0.85516
  164  H   0.84758
  165  H   0.84157
  166  H   0.83940
  167  H   0.85707
  168  H   0.84232
  169  H   0.85723
  170  H   0.83988
  171  H   0.84776
  172  H   0.85454
  173  H   0.85350
  174  H   0.83180
  175  H   0.84349
  176  H   0.85517
  177  H   0.85322
  178  H   0.84632
  179  H   0.84544
  180  H   0.85491
  181  H   0.85325
  182  H   0.84740
  183  H   0.84880
  184  H   0.85489
  185  H   0.85388
  186  H   0.83379
  187  H   0.84699
  188  H   0.85301
  189  H   0.85530
  190  H   0.84695
  191  H   0.83365
  192  H   0.85254
  193  H   0.85458
  194  H   0.84950
  195  H   0.84478
  196  H   0.85402
  197  H   0.85262
  198  H   0.84569
  199  H   0.84700
  200  H   0.85353
  201  H   0.85379
  202  H   0.83486
  203  H   0.86379
  204  H   0.85877
  205  H   0.84926
  206  H   0.86805
  207  H   0.87055
  208  H   0.86463
  209  H   0.85094
  210  H   0.86310
  211  H   0.86792
  212  H   0.86417
  213  H   0.85486
  214  H   0.82530
  215  H   0.84987
  216  H   0.86059
  217  H   0.85893
  218  H   0.85731
  219  H   0.86442
  220  H   0.86722
  221  H   0.86573
  222  H   0.86331
  223  H   0.85852
  224  H   0.86363
  225  H   0.86475
  226  H   0.85693
  227  H   0.82705
  228  H   0.83168
  229  H   0.86032
  230  H   0.85728
  231  H   0.85955
  232  H   0.86652
  233  H   0.86414
  234  H   0.86092
  235  H   0.86511
  236  H   0.86801
  237  H   0.85664
  238  H   0.86246
  239  H   0.86132
  240  H   0.82805
  241  H   0.83299
  242  H   0.86389
  243  H   0.85283
  244  H   0.86122
  245  H   0.86942
  246  H   0.86377
  247  H   0.85231
  248  H   0.86690
  249  H   0.86836
  250  H   0.85391
  251  H   0.84850
  252  H   0.86219
  253  H   0.85118
  254  H   0.82886

 **********************
 *                    *
 * JOB ENDED NORMALLY *
 *                    *
 **********************



 TOTAL JOB TIME:           271.54 SECONDS

 == MOPAC DONE ==
