54
BtPHD ORCA - Last Step: 12
  C      4.740836   -2.523930    0.089719
  C     -4.730200   -2.535475   -0.142687
  C      4.016586   -1.166901    0.094236
  C     -4.011255   -1.176110   -0.105456
  C      5.215992   -2.847963    1.527260
  C      3.828028   -3.667910   -0.390581
  C     -5.202151   -2.819004   -1.589682
  C     -5.955789   -2.484643    0.801990
  C     -3.813783   -3.689729    0.305329
  C      5.964213   -2.440023   -0.855180
  C     -4.703221   -0.001975   -0.488017
  C      4.706139   -0.001662    0.506936
  C      2.670162   -1.015087   -0.301540
  C     -2.667362   -1.030705    0.301195
  C     -4.092562    1.253842   -0.470614
  C      4.090916    1.251800    0.528788
  C      2.037175    0.233174   -0.285325
  C     -2.038959    0.219733    0.324086
  C      2.734229    1.396066    0.133685
  C     -2.738425    1.391706   -0.064578
  C     -2.085994    2.653793   -0.043503
  C      2.077063    2.655725    0.152952
  C     -1.465875    3.721729   -0.007417
  C      1.454055    3.722589    0.151690
  C     -0.696122    4.899385    0.042760
  C      0.681415    4.899397    0.139497
  H     -6.672641   -1.694630    0.501605
  H     -5.643028   -2.278769    1.845989
  H     -4.339591   -2.859840   -2.285624
  H     -6.494922   -3.454831    0.787848
  H      5.911275   -2.076694    1.914826
  H     -2.922068   -3.784419   -0.346866
  H     -3.466583   -3.560672    1.350445
  H      6.678128   -1.655216   -0.534129
  H      3.476870   -3.507864   -1.430072
  H     -5.733962   -3.792244   -1.638426
  H      5.648359   -2.205506   -1.892156
  H      6.508130   -3.407497   -0.870752
  H      4.354436   -2.908333    2.222989
  H     -4.366379   -4.649970    0.255703
  H      2.938887   -3.785554    0.261386
  H      4.384646   -4.626883   -0.371937
  H      5.747815   -3.822182    1.548076
  H     -5.896864   -2.037352   -1.956282
  H     -5.753039   -0.069491   -0.811945
  H      5.758032   -0.074784    0.822810
  H      2.091165   -1.887145   -0.633660
  H     -2.086969   -1.909796    0.611301
  H     -4.653898    2.148876   -0.775896
  H      4.650591    2.139904    0.856616
  H     -0.993878    0.308553    0.653916
  H      0.990071    0.327721   -0.607126
  H      1.203981    5.869327    0.200578
  H     -1.220974    5.869568    0.013438
