42
DNHD ORCA - Last Step: 39
  C      2.828707   -0.712636   -0.366438
  C     -1.709328   -0.974895   -0.366836
  C      2.279077   -1.341767    0.812305
  C     -2.975506   -1.455885    0.137133
  C      2.604965    0.676273   -0.582080
  C     -1.496895    0.423105   -0.479766
  C      1.526538   -0.543529    1.726447
  C     -3.979092   -0.500664    0.488599
  C      3.551310   -1.515744   -1.300598
  C     -0.697507   -1.918810   -0.720786
  C      2.474946   -2.738906    1.005248
  C     -3.170830   -2.861318    0.270555
  C     -2.487347    1.346559   -0.105429
  C      1.844958    1.435894    0.316254
  C      1.308745    0.799703    1.491050
  C     -3.751319    0.859110    0.372971
  C     -0.916873   -3.279770   -0.570331
  C      3.719514   -2.876864   -1.086790
  C      3.178250   -3.493869    0.075330
  C     -2.162733   -3.754499   -0.071402
  C     -2.182872    2.734024   -0.181169
  C      1.502494    2.795844    0.061261
  C     -1.762752    3.893690   -0.251393
  C      1.055230    3.933432   -0.115510
  C      0.324450    5.129644   -0.301373
  C     -1.056053    5.111613   -0.339374
  H     -0.532064    0.792170   -0.854869
  H      3.009657    1.152360   -1.487518
  H     -4.947020   -0.867202    0.865212
  H      1.098818   -1.022852    2.620318
  H      3.966551   -1.036526   -2.201022
  H      0.263987   -1.545982   -1.102351
  H      2.046991   -3.213416    1.901730
  H     -4.135140   -3.229207    0.655179
  H      0.704560    1.402565    2.183673
  H     -4.527190    1.584584    0.656813
  H      4.272673   -3.484449   -1.819412
  H     -0.121513   -3.992976   -0.833898
  H     -2.326780   -4.837336    0.043093
  H      3.318996   -4.573882    0.234795
  H      0.857842    6.088709   -0.409848
  H     -1.605847    6.060706   -0.452974
