212
VL ORCA - Last Step: 21
  C      0.397789    0.347175    1.654990
  C      0.278818   -0.815192    0.772826
  C     -1.032107   -1.384014    0.592999
  C     -2.230555   -0.910045    1.235968
  C     -2.110070    0.248433    2.123344
  C     -0.803985    0.834816    2.281291
  C      1.360272   -1.418169    0.093655
  C      1.220246   -2.545244   -0.754537
  C     -0.051640   -3.098196   -0.949597
  C     -1.147791   -2.494650   -0.262199
  C     -3.436784   -1.596335    0.974291
  C     -3.527043   -2.717381    0.111485
  C     -2.370859   -3.181453   -0.528973
  C      1.608737    1.015693    1.938527
  C      1.697468    2.142651    2.793002
  C      0.533081    2.641073    3.391164
  C     -0.691248    1.958073    3.120883
  C     -1.781902    2.544301    3.832011
  C     -3.042072    1.949686    3.688112
  C     -3.183101    0.823984    2.838478
  H     -4.359846   -1.251626    1.462481
  H     -4.499994   -3.203626   -0.040843
  H      2.369462   -1.001003    0.224736
  H      2.109110   -2.966275   -1.243683
  H      2.537895    0.649514    1.478469
  H      2.677312    2.604872    2.971585
  H     -3.921885    2.336938    4.218491
  H     -4.185415    0.381363    2.741833
  C     -0.611874   -4.234450   -1.702642
  C     -2.033300   -4.283657   -1.448930
  C      0.022577   -5.201534   -2.509476
  C     -0.785264   -6.219213   -3.059334
  C     -2.206261   -6.264207   -2.813809
  C     -2.841897   -5.297043   -2.005418
  C      0.197466    3.741285    4.314401
  C     -1.219836    3.679283    4.587810
  C      1.019049    4.717769    4.917221
  C      0.402333    5.628561    5.801108
  C     -1.012273    5.563272    6.077914
  C     -1.834950    4.588923    5.473895
  C     -0.438337   -7.340065   -3.958386
  C     -2.764035   -7.411437   -3.561113
  C     -1.660394   -8.030106   -4.224616
  C      0.959711    6.785377    6.533107
  C     -1.353981    6.677457    6.986763
  C     -0.134625    7.379516    7.233322
  C     -1.767403   -9.168414   -5.057615
  C     -4.034960   -7.955987   -3.757208
  C     -4.168494   -9.108957   -4.588432
  C     -3.080608   -9.711804   -5.221688
  C      0.727841   -7.813719   -4.563221
  C      0.647559   -8.966410   -5.401631
  C     -0.551778   -9.636613   -5.648845
  C     -0.030588    8.537001    8.039721
  C      2.215345    7.385598    6.648680
  C      2.348128    8.550378    7.463635
  C      1.271701    9.119827    8.145764
  C     -1.243749    9.002699    8.637878
  C     -2.442205    8.326858    8.401785
  C     -2.522184    7.164245    7.576918
  H      3.093880    6.983624    6.126199
  H      3.341767    9.017243    7.548643
  H     -3.493832    6.676897    7.418190
  H      1.697753   -7.323844   -4.404978
  H      1.572775   -9.336336   -5.869595
  H     -4.925933   -7.518854   -3.287277
  H     -5.173543   -9.535035   -4.730979
  C     -3.294985    4.519207    5.754571
  C      2.474839    4.784422    4.615698
  C     -4.306403   -5.345563   -1.745734
  C      1.487292   -5.152526   -2.769481
  C     -4.222705    4.864199    4.760747
  C     -3.752823    4.090636    7.018274
  C     -5.126529    4.007093    7.297740
  C     -6.034350    4.347489    6.267311
  C     -5.611271    4.772860    4.995931
  H     -3.003347    3.828285    7.776139
  H     -3.841536    5.195233    3.783721
  C      2.910455    5.161364    3.336314
  C      3.422989    4.452389    5.606099
  C      4.799160    4.499091    5.330387
  C      5.202459    4.870506    4.026393
  C      4.284205    5.199375    3.013946
  H      3.053696    4.161319    6.597916
  H     -3.367758    8.704373    8.863119
  C     -4.852887   -6.373391   -0.963080
  C     -5.153906   -4.356151   -2.286895
  C     -6.537525   -4.382306   -2.048229
  C     -6.241206   -6.446773   -0.718907
  C     -7.056702   -5.440920   -1.266532
  H     -4.172845   -7.133267   -0.550633
  H     -4.701100   -3.560623   -2.893135
  C      2.339253   -6.104562   -2.190999
  C      2.025131   -4.153130   -3.607012
  C      3.403579   -4.097934   -3.870162
  C      4.232843   -5.081274   -3.280827
  C      3.727999   -6.091331   -2.443213
  H      2.150834    5.412302    2.581186
  H      1.336065   -3.419655   -4.045101
  H      1.897076   -6.876863   -1.543786
  C     -6.592611    5.123445    3.862923
  C     -5.663316    3.569254    8.672758
  C     -8.062211    4.953547    4.289123
  C     -4.525679    3.258427    9.663655
  H     -3.883775    2.426401    9.309870
  H     -4.951918    2.957737   10.641752
  H     -3.878786    4.142343    9.837967
  C     -6.529228    2.298631    8.503589
  H     -5.932979    1.470565    8.069322
  H     -7.396653    2.475708    7.836569
  H     -6.923545    1.962141    9.485021
  C     -6.522191    4.711973    9.264667
  H     -5.919783    5.635558    9.382837
  H     -6.914721    4.426221   10.262519
  H     -7.389515    4.955551    8.619117
  H     -8.287186    3.909564    4.587141
  H     -8.732643    5.210293    3.443830
  H     -8.324604    5.617569    5.137374
  C     -6.318311    4.187188    2.661496
  H     -6.477577    3.126175    2.944473
  H     -5.277947    4.282380    2.292344
  H     -7.000136    4.423909    1.818166
  C     -6.371041    6.595026    3.439771
  H     -6.564575    7.281891    4.288803
  H     -7.054472    6.868584    2.608996
  H     -5.332686    6.772181    3.095574
  C      5.867172    4.158335    6.386292
  C      4.716622    5.567764    1.582675
  C      5.239987    3.818676    7.751520
  H      4.643664    4.664208    8.151066
  H      6.038013    3.592946    8.487673
  H      4.579714    2.929910    7.690207
  C      6.686756    2.937809    5.902439
  H      6.030905    2.054486    5.762811
  H      7.468075    2.674465    6.645614
  H      7.195137    3.138010    4.937334
  C      6.806303    5.374489    6.569444
  H      6.240427    6.263100    6.917197
  H      7.316812    5.649108    5.624596
  H      7.589079    5.149066    7.323023
  C      4.138422    4.514465    0.606207
  H      4.521304    3.501457    0.846639
  H      4.427577    4.750811   -0.439261
  H      3.031576    4.471865    0.650921
  C      6.247948    5.593537    1.427179
  H      6.701530    4.602637    1.632989
  H      6.718537    6.334517    2.104504
  H      6.517087    5.871449    0.387979
  C      4.163032    6.967280    1.225246
  H      3.056245    6.995691    1.272990
  H      4.464230    7.252312    0.195835
  H      4.550763    7.736295    1.923853
  C      4.028459   -3.016350   -4.769848
  C      4.617709   -7.179458   -1.816526
  C     -6.802356   -7.619259    0.106106
  C     -7.490174   -3.303209   -2.594430
  C      5.064818   -2.212262   -3.949412
  H      4.583192   -1.714420   -3.083412
  H      5.535867   -1.428552   -4.579080
  H      5.872591   -2.861924   -3.557804
  C      2.973434   -2.036363   -5.314515
  H      2.444723   -1.505133   -4.497961
  H      2.213023   -2.550794   -5.936650
  H      3.462884   -1.270276   -5.950063
  C      4.731732   -3.697710   -5.968442
  H      5.531368   -4.391036   -5.638792
  H      5.195971   -2.936539   -6.630123
  H      4.005728   -4.282627   -6.569437
  C      4.142595   -8.563199   -2.325368
  H      3.080725   -8.753662   -2.071761
  H      4.750003   -9.374109   -1.872281
  H      4.241711   -8.632161   -3.428423
  C      4.484780   -7.118423   -0.276593
  H      3.438654   -7.278057    0.052518
  H      4.810875   -6.131308    0.110368
  H      5.111137   -7.900249    0.200920
  C      6.101461   -7.006668   -2.189218
  H      6.260317   -7.064250   -3.285642
  H      6.703850   -7.811421   -1.721454
  H      6.505820   -6.037653   -1.832837
  C     -8.171445   -2.587681   -1.402822
  H     -8.745142   -3.295787   -0.770887
  H     -8.877126   -1.809922   -1.763396
  H     -7.415769   -2.093840   -0.757390
  C     -6.746523   -2.248277   -3.433893
  H     -5.980101   -1.712984   -2.837359
  H     -7.464348   -1.492850   -3.812971
  H     -6.244493   -2.700307   -4.313378
  C     -8.564891   -3.971837   -3.483362
  H     -9.161187   -4.717606   -2.919972
  H     -8.098159   -4.493541   -4.343681
  H     -9.267240   -3.210645   -3.882504
  C     -6.124181   -7.639541    1.496605
  H     -5.026179   -7.766369    1.417374
  H     -6.517611   -8.478918    2.107422
  H     -6.316257   -6.694299    2.044772
  C     -6.496359   -8.939944   -0.642514
  H     -5.408609   -9.083469   -0.801081
  H     -6.984615   -8.947509   -1.637850
  H     -6.873551   -9.812100   -0.068363
  C     -8.325401   -7.513311    0.305901
  H     -8.607966   -6.583916    0.841543
  H     -8.686931   -8.369782    0.910337
  H     -8.870049   -7.533178   -0.659336
  H     -1.230164    9.901290    9.274475
  H      1.418773   10.023109    8.758136
  H     -3.229932  -10.601939   -5.852600
  H     -0.566606  -10.525008   -6.299649
  H      5.310259   -5.053111   -3.492721
  H     -8.139154   -5.474185   -1.083826
  H      6.276843    4.899547    3.799961
  H     -7.111014    4.276001    6.472252
