 *******************************************************************************
 ** Site#: 9602  E-mail support: MrMOPAC@OpenMOPAC.net  Version 16.035L 64BITS**
 *******************************************************************************
 ** Cite this program as: MOPAC2016, Version: 16.035L, James J. P. Stewart,   **
 ** Stewart Computational Chemistry, web-site: HTTP://OpenMOPAC.net.          **
 *******************************************************************************
 **                                                                           **
 **                                MOPAC2016                                  **
 **                                                                           **
 *******************************************************************************

                              PM7 CALCULATION RESULTS


 *******************************************************************************
 *  CALCULATION DONE:                                Fri Apr 28 02:46:24 2017  *
 *  PM7        - The PM7 Hamiltonian to be used
 *
 *
 *
 *                 CHARGE ON SYSTEM = 0
 *
 *
 *
 *  BFGS       - USE THE BFGS GEOMETRY OPTIMIZER
 *  T=         - A TIME OF 172800.0 SECONDS REQUESTED
 *  DUMP=N     - RESTART FILE WRITTEN EVERY  7200.000 SECONDS
 *******************************************************************************
PM7 BFGS CHARGE=0
 nanocar2

   ATOM   CHEMICAL          X               Y               Z
  NUMBER   SYMBOL      (ANGSTROMS)     (ANGSTROMS)     (ANGSTROMS)
 
     1       C         -0.60564000  *  -1.34774000  *   0.12260000  *
     2       C         -1.30093000  *  -0.11468000  *   0.08677000  *
     3       C         -0.60593000  *   1.07491000  *   0.11277000  *
     4       C          0.81014000  *   1.07008000  *   0.16570000  *
     5       C          1.52114000  *  -0.15804000  *   0.25831000  *
     6       C          0.80070000  *  -1.34988000  *   0.24386000  *
     7       C         -1.29066000  *  -2.52929000  *  -0.01797000  *
     8       C         -1.90725000  *  -3.61649000  *  -0.18310000  *
     9       C         -2.52724000  *  -4.71408000  *  -0.35504000  *
    10       C          1.44899000  *   2.28196000  *   0.08314000  *
    11       C          1.98106000  *   3.42834000  *  -0.06659000  *
    12       C          2.47108000  *   4.57957000  *  -0.22326000  *
    13       C          2.92673000  *  -0.16522000  *   0.25434000  *
    14       C          4.13878000  *  -0.15350000  *   0.13777000  *
    15       C          5.49086000  *  -0.07634000  *  -0.25079000  *
    16       C          5.88346000  *   1.08929000  *  -0.93097000  *
    17       C          7.11344000  *   1.13102000  *  -1.57402000  *
    18       C          7.90720000  *  -0.01442000  *  -1.60174000  *
    19       C          7.53684000  *  -1.18658000  *  -0.93293000  *
    20       C          6.37194000  *  -1.15948000  *  -0.15550000  *
    21       S          9.42206000  *   0.04467000  *  -2.49722000  *
    22       C         10.37932000  *  -1.10626000  *  -1.57082000  *
    23       C          9.78916000  *  -2.21772000  *  -0.94900000  *
    24       C          8.33090000  *  -2.42007000  *  -1.08211000  *
    25       C         11.75182000  *  -0.87607000  *  -1.51825000  *
    26       C         12.58934000  *  -1.83687000  *  -0.96218000  *
    27       C         12.02853000  *  -3.00357000  *  -0.42392000  *
    28       C         10.63366000  *  -3.13059000  *  -0.31236000  *
    29       C          7.78376000  *  -3.60997000  *  -1.39536000  *
    30       C          6.34230000  *  -4.03960000  *  -1.70582000  *
    31       C          6.18041000  *  -5.23784000  *  -0.70756000  *
    32       C          7.55751000  *  -5.82618000  *  -0.73299000  *
    33       C          8.44996000  *  -4.93601000  *  -1.32713000  *
    34       C          7.94819000  *  -7.11956000  *  -0.34672000  *
    35       C          9.18872000  *  -7.56683000  *  -0.73365000  *
    36       C         10.01556000  *  -6.76842000  *  -1.57284000  *
    37       C          9.66489000  *  -5.42350000  *  -1.85911000  *
    38       C         11.15873000  *  -7.32820000  *  -2.20861000  *
    39       C         11.91053000  *  -6.58137000  *  -3.07699000  *
    40       C         11.56101000  *  -5.23719000  *  -3.36112000  *
    41       C         10.46078000  *  -4.67449000  *  -2.76863000  *
    42       C          5.14259000  *  -3.11713000  *  -1.69054000  *
    43       C         12.85456000  *  -4.12655000  *  -0.23353000  *
    44       C         13.52261000  *  -5.13901000  *  -0.32634000  *
    45       C         14.12765000  *  -6.36947000  *  -0.61458000  *
    46       C         15.29200000  *  -6.45620000  *  -1.41961000  *
    47       C         15.75762000  *  -7.72610000  *  -1.84686000  *
    48       C         15.03818000  *  -8.86261000  *  -1.55107000  *
    49       C         13.84249000  *  -8.78520000  *  -0.79142000  *
    50       C         13.44061000  *  -7.53700000  *  -0.27574000  *
    51       C         13.03773000  *  -9.88943000  *  -0.66658000  *
    52       C         12.36760000  * -10.95891000  *  -0.70894000  *
    53       C         11.66190000  * -12.01208000  *  -0.77330000  *
    54       C         15.97656000  *  -5.35183000  *  -1.86558000  *
    55       C         16.55926000  *  -4.38472000  *  -2.45581000  *
    56       C         17.15423000  *  -3.44853000  *  -3.05535000  *
    57       H         -2.39352000  *  -0.12396000  *   0.02684000  *
    58       H         -1.13659000  *   2.02548000  *   0.07550000  *
    59       H          1.32879000  *  -2.30756000  *   0.30106000  *
    60       H          5.21829000  *   1.94687000  *  -0.96096000  *
    61       H          7.42913000  *   2.05438000  *  -2.06119000  *
    62       H          6.13444000  *  -2.00788000  *   0.48717000  *
    63       H         12.18906000  *   0.03596000  *  -1.93171000  *
    64       H         13.66977000  *  -1.70551000  *  -0.97149000  *
    65       H         10.21535000  *  -3.98321000  *   0.22526000  *
    66       H          6.39757000  *  -4.45582000  *  -2.75514000  *
    67       H          5.40832000  *  -5.94480000  *  -1.03972000  *
    68       H          5.88215000  *  -4.88672000  *   0.29479000  *
    69       H          7.26909000  *  -7.74568000  *   0.22152000  *
    70       H          9.52516000  *  -8.56068000  *  -0.45427000  *
    71       H         11.40182000  *  -8.37618000  *  -2.01529000  *
    72       H         12.77407000  *  -7.01085000  *  -3.57612000  *
    73       H         12.16886000  *  -4.66708000  *  -4.06933000  *
    74       H         10.16591000  *  -3.65711000  *  -3.00688000  *
    75       H          4.74572000  *  -2.93787000  *  -0.68611000  *
    76       H          4.31483000  *  -3.55943000  *  -2.26412000  *
    77       H          5.35890000  *  -2.15028000  *  -2.16142000  *
    78       H         16.67658000  *  -7.78975000  *  -2.42802000  *
    79       H         15.36738000  *  -9.84046000  *  -1.91368000  *
    80       H         12.54340000  *  -7.47621000  *   0.35125000  *
    81       C         -3.09546000  *  -5.93026000  *  -0.52533000  *
    82       B         -4.91815000  *  -6.14499000  *  -0.59039000  *
    83       B         -3.86853000  *  -6.35895000  *  -2.03803000  *
    84       B         -3.90140000  *  -6.69944000  *   0.81073000  *
    85       B         -2.29188000  *  -7.17047000  *  -1.55350000  *
    86       B         -2.31883000  *  -7.40926000  *   0.21389000  *
    87       B         -2.69775000  *  -8.78322000  *  -0.86437000  *
    88       B         -3.66526000  *  -8.48123000  *   0.63667000  *
    89       B         -3.60831000  *  -8.12159000  *  -2.28097000  *
    90       B         -5.23282000  *  -7.72893000  *   0.13315000  *
    91       B         -5.20291000  *  -7.52704000  *  -1.66840000  *
    92       C         -4.43714000  *  -8.91069000  *  -0.90841000  *
    93       H         -5.66661000  *  -5.19465000  *  -0.49416000  *
    94       H         -3.92508000  *  -5.58144000  *  -2.96647000  *
    95       H         -3.97881000  *  -6.17212000  *   1.89632000  *
    96       H         -1.25320000  *  -6.93124000  *  -2.12817000  *
    97       H         -1.30014000  *  -7.32032000  *   0.86863000  *
    98       H         -1.97951000  *  -9.75580000  *  -0.96984000  *
    99       H         -3.63649000  *  -9.24367000  *   1.57951000  *
   100       H         -3.52035000  *  -8.63851000  *  -3.37548000  *
   101       H         -6.25479000  *  -7.98207000  *   0.73466000  *
   102       H         -6.20117000  *  -7.63785000  *  -2.34381000  *
   103       H         -4.89246000  *  -9.90972000  *  -1.03689000  *
   104       C          3.02440000  *   5.82270000  *  -0.38383000  *
   105       B          4.62823000  *   5.91257000  *  -1.10559000  *
   106       B          3.21244000  *   6.54463000  *  -2.03343000  *
   107       B          4.37250000  *   6.27447000  *   0.68124000  *
   108       B          2.04966000  *   7.20644000  *  -0.80854000  *
   109       B          2.78341000  *   7.10113000  *   0.85988000  *
   110       B          2.83567000  *   8.63753000  *  -0.03515000  *
   111       B          4.29424000  *   8.05930000  *   0.87252000  *
   112       B          3.10729000  *   8.30009000  *  -1.79025000  *
   113       B          5.43849000  *   7.30244000  *  -0.31275000  *
   114       B          4.71994000  *   7.49310000  *  -1.96423000  *
   115       C          4.46149000  *   8.72521000  *  -0.73939000  *
   116       H          5.22829000  *   4.92348000  *  -1.47311000  *
   117       H          2.80767000  *   5.98245000  *  -3.03371000  *
   118       H          4.78691000  *   5.52468000  *   1.54535000  *
   119       H          0.85383000  *   7.14150000  *  -0.97725000  *
   120       H          2.09070000  *   6.92129000  *   1.84444000  *
   121       H          2.22613000  *   9.62893000  *   0.31390000  *
   122       H          4.70191000  *   8.64134000  *   1.85720000  *
   123       H          2.68237000  *   9.06186000  *  -2.63571000  *
   124       H          6.64110000  *   7.36684000  *  -0.14510000  *
   125       H          5.43022000  *   7.68458000  *  -2.93372000  *
   126       H          4.95281000  *   9.71216000  *  -0.85649000  *
   127       C         11.03980000  * -13.20398000  *  -0.94633000  *
   128       B          9.23202000  * -13.32968000  *  -0.99934000  *
   129       B         10.29439000  * -13.58739000  *  -2.46937000  *
   130       B         10.14867000  * -13.96932000  *   0.39718000  *
   131       B         11.79514000  * -14.50180000  *  -2.02698000  *
   132       B         11.73775000  * -14.65094000  *  -0.23647000  *
   133       B         11.33081000  * -16.05278000  *  -1.30586000  *
   134       B         10.36540000  * -15.72480000  *   0.18972000  *
   135       B         10.42992000  * -15.37850000  *  -2.72657000  *
   136       B          8.81882000  * -14.93843000  *  -0.33143000  *
   137       B          8.88613000  * -14.66129000  *  -2.12056000  *
   138       C          9.58040000  * -16.11800000  *  -1.36691000  *
   139       H          8.52988000  * -12.34776000  *  -0.88500000  *
   140       H         10.29509000  * -12.79789000  *  -3.39364000  *
   141       H         10.07155000  * -13.43855000  *   1.48585000  *
   142       H         12.84785000  * -14.30425000  *  -2.60780000  *
   143       H         12.75733000  * -14.60606000  *   0.42160000  *
   144       H         12.01616000  * -17.05297000  *  -1.38678000  *
   145       H         10.38551000  * -16.49910000  *   1.11869000  *
   146       H         10.47874000  * -15.89655000  *  -3.82175000  *
   147       H          7.77391000  * -15.16717000  *   0.23846000  *
   148       H          7.88811000  * -14.70030000  *  -2.80693000  *
   149       H          9.08599000  * -17.09677000  *  -1.50659000  *
   150       C         17.78619000  *  -2.44875000  *  -3.74650000  *
   151       B         18.12790000  *  -2.67507000  *  -5.47978000  *
   152       B         16.87218000  *  -1.49228000  *  -4.97315000  *
   153       B         19.46733000  *  -2.66065000  *  -4.22595000  *
   154       B         17.42617000  *  -0.78081000  *  -3.38361000  *
   155       B         19.06582000  *  -1.44566000  *  -2.95282000  *
   156       B         18.93649000  *   0.15703000  *  -3.71248000  *
   157       B         20.21211000  *  -1.01570000  *  -4.24900000  *
   158       B         17.60092000  *   0.12847000  *  -4.93150000  *
   159       B         19.65061000  *  -1.79186000  *  -5.78495000  *
   160       B         18.06256000  *  -1.04294000  *  -6.23238000  *
   161       C         19.29147000  *  -0.08759000  *  -5.42427000  *
   162       H         17.82120000  *  -3.69242000  *  -6.07301000  *
   163       H         15.69347000  *  -1.70461000  *  -5.19544000  *
   164       H         20.09603000  *  -3.66359000  *  -3.95434000  *
   165       H         16.63084000  *  -0.45970000  *  -2.52466000  *
   166       H         19.38997000  *  -1.61924000  *  -1.79561000  *
   167       H         19.22184000  *   1.18647000  *  -3.13399000  *
   168       H         21.38993000  *  -0.81286000  *  -4.04977000  *
   169       H         16.97462000  *   1.13990000  *  -5.18746000  *
   170       H         20.45023000  *  -2.12037000  *  -6.64143000  *
   171       H         17.76390000  *  -0.85520000  *  -7.39080000  *
   172       H         19.79980000  *   0.71161000  *  -5.98876000  *
 


          CARTESIAN COORDINATES 

    NO.       ATOM         X         Y         Z

     1         C       -0.6056   -1.3477    0.1226
     2         C       -1.3009   -0.1147    0.0868
     3         C       -0.6059    1.0749    0.1128
     4         C        0.8101    1.0701    0.1657
     5         C        1.5211   -0.1580    0.2583
     6         C        0.8007   -1.3499    0.2439
     7         C       -1.2907   -2.5293   -0.0180
     8         C       -1.9072   -3.6165   -0.1831
     9         C       -2.5272   -4.7141   -0.3550
    10         C        1.4490    2.2820    0.0831
    11         C        1.9811    3.4283   -0.0666
    12         C        2.4711    4.5796   -0.2233
    13         C        2.9267   -0.1652    0.2543
    14         C        4.1388   -0.1535    0.1378
    15         C        5.4909   -0.0763   -0.2508
    16         C        5.8835    1.0893   -0.9310
    17         C        7.1134    1.1310   -1.5740
    18         C        7.9072   -0.0144   -1.6017
    19         C        7.5368   -1.1866   -0.9329
    20         C        6.3719   -1.1595   -0.1555
    21         S        9.4221    0.0447   -2.4972
    22         C       10.3793   -1.1063   -1.5708
    23         C        9.7892   -2.2177   -0.9490
    24         C        8.3309   -2.4201   -1.0821
    25         C       11.7518   -0.8761   -1.5183
    26         C       12.5893   -1.8369   -0.9622
    27         C       12.0285   -3.0036   -0.4239
    28         C       10.6337   -3.1306   -0.3124
    29         C        7.7838   -3.6100   -1.3954
    30         C        6.3423   -4.0396   -1.7058
    31         C        6.1804   -5.2378   -0.7076
    32         C        7.5575   -5.8262   -0.7330
    33         C        8.4500   -4.9360   -1.3271
    34         C        7.9482   -7.1196   -0.3467
    35         C        9.1887   -7.5668   -0.7337
    36         C       10.0156   -6.7684   -1.5728
    37         C        9.6649   -5.4235   -1.8591
    38         C       11.1587   -7.3282   -2.2086
    39         C       11.9105   -6.5814   -3.0770
    40         C       11.5610   -5.2372   -3.3611
    41         C       10.4608   -4.6745   -2.7686
    42         C        5.1426   -3.1171   -1.6905
    43         C       12.8546   -4.1265   -0.2335
    44         C       13.5226   -5.1390   -0.3263
    45         C       14.1276   -6.3695   -0.6146
    46         C       15.2920   -6.4562   -1.4196
    47         C       15.7576   -7.7261   -1.8469
    48         C       15.0382   -8.8626   -1.5511
    49         C       13.8425   -8.7852   -0.7914
    50         C       13.4406   -7.5370   -0.2757
    51         C       13.0377   -9.8894   -0.6666
    52         C       12.3676  -10.9589   -0.7089
    53         C       11.6619  -12.0121   -0.7733
    54         C       15.9766   -5.3518   -1.8656
    55         C       16.5593   -4.3847   -2.4558
    56         C       17.1542   -3.4485   -3.0553
    57         H       -2.3935   -0.1240    0.0268
    58         H       -1.1366    2.0255    0.0755
    59         H        1.3288   -2.3076    0.3011
    60         H        5.2183    1.9469   -0.9610
    61         H        7.4291    2.0544   -2.0612
    62         H        6.1344   -2.0079    0.4872
    63         H       12.1891    0.0360   -1.9317
    64         H       13.6698   -1.7055   -0.9715
    65         H       10.2154   -3.9832    0.2253
    66         H        6.3976   -4.4558   -2.7551
    67         H        5.4083   -5.9448   -1.0397
    68         H        5.8822   -4.8867    0.2948
    69         H        7.2691   -7.7457    0.2215
    70         H        9.5252   -8.5607   -0.4543
    71         H       11.4018   -8.3762   -2.0153
    72         H       12.7741   -7.0108   -3.5761
    73         H       12.1689   -4.6671   -4.0693
    74         H       10.1659   -3.6571   -3.0069
    75         H        4.7457   -2.9379   -0.6861
    76         H        4.3148   -3.5594   -2.2641
    77         H        5.3589   -2.1503   -2.1614
    78         H       16.6766   -7.7897   -2.4280
    79         H       15.3674   -9.8405   -1.9137
    80         H       12.5434   -7.4762    0.3513
    81         C       -3.0955   -5.9303   -0.5253
    82         B       -4.9181   -6.1450   -0.5904
    83         B       -3.8685   -6.3590   -2.0380
    84         B       -3.9014   -6.6994    0.8107
    85         B       -2.2919   -7.1705   -1.5535
    86         B       -2.3188   -7.4093    0.2139
    87         B       -2.6978   -8.7832   -0.8644
    88         B       -3.6653   -8.4812    0.6367
    89         B       -3.6083   -8.1216   -2.2810
    90         B       -5.2328   -7.7289    0.1331
    91         B       -5.2029   -7.5270   -1.6684
    92         C       -4.4371   -8.9107   -0.9084
    93         H       -5.6666   -5.1947   -0.4942
    94         H       -3.9251   -5.5814   -2.9665
    95         H       -3.9788   -6.1721    1.8963
    96         H       -1.2532   -6.9312   -2.1282
    97         H       -1.3001   -7.3203    0.8686
    98         H       -1.9795   -9.7558   -0.9698
    99         H       -3.6365   -9.2437    1.5795
   100         H       -3.5204   -8.6385   -3.3755
   101         H       -6.2548   -7.9821    0.7347
   102         H       -6.2012   -7.6379   -2.3438
   103         H       -4.8925   -9.9097   -1.0369
   104         C        3.0244    5.8227   -0.3838
   105         B        4.6282    5.9126   -1.1056
   106         B        3.2124    6.5446   -2.0334
   107         B        4.3725    6.2745    0.6812
   108         B        2.0497    7.2064   -0.8085
   109         B        2.7834    7.1011    0.8599
   110         B        2.8357    8.6375   -0.0352
   111         B        4.2942    8.0593    0.8725
   112         B        3.1073    8.3001   -1.7902
   113         B        5.4385    7.3024   -0.3128
   114         B        4.7199    7.4931   -1.9642
   115         C        4.4615    8.7252   -0.7394
   116         H        5.2283    4.9235   -1.4731
   117         H        2.8077    5.9825   -3.0337
   118         H        4.7869    5.5247    1.5454
   119         H        0.8538    7.1415   -0.9772
   120         H        2.0907    6.9213    1.8444
   121         H        2.2261    9.6289    0.3139
   122         H        4.7019    8.6413    1.8572
   123         H        2.6824    9.0619   -2.6357
   124         H        6.6411    7.3668   -0.1451
   125         H        5.4302    7.6846   -2.9337
   126         H        4.9528    9.7122   -0.8565
   127         C       11.0398  -13.2040   -0.9463
   128         B        9.2320  -13.3297   -0.9993
   129         B       10.2944  -13.5874   -2.4694
   130         B       10.1487  -13.9693    0.3972
   131         B       11.7951  -14.5018   -2.0270
   132         B       11.7378  -14.6509   -0.2365
   133         B       11.3308  -16.0528   -1.3059
   134         B       10.3654  -15.7248    0.1897
   135         B       10.4299  -15.3785   -2.7266
   136         B        8.8188  -14.9384   -0.3314
   137         B        8.8861  -14.6613   -2.1206
   138         C        9.5804  -16.1180   -1.3669
   139         H        8.5299  -12.3478   -0.8850
   140         H       10.2951  -12.7979   -3.3936
   141         H       10.0716  -13.4385    1.4859
   142         H       12.8478  -14.3042   -2.6078
   143         H       12.7573  -14.6061    0.4216
   144         H       12.0162  -17.0530   -1.3868
   145         H       10.3855  -16.4991    1.1187
   146         H       10.4787  -15.8965   -3.8218
   147         H        7.7739  -15.1672    0.2385
   148         H        7.8881  -14.7003   -2.8069
   149         H        9.0860  -17.0968   -1.5066
   150         C       17.7862   -2.4487   -3.7465
   151         B       18.1279   -2.6751   -5.4798
   152         B       16.8722   -1.4923   -4.9732
   153         B       19.4673   -2.6607   -4.2260
   154         B       17.4262   -0.7808   -3.3836
   155         B       19.0658   -1.4457   -2.9528
   156         B       18.9365    0.1570   -3.7125
   157         B       20.2121   -1.0157   -4.2490
   158         B       17.6009    0.1285   -4.9315
   159         B       19.6506   -1.7919   -5.7850
   160         B       18.0626   -1.0429   -6.2324
   161         C       19.2915   -0.0876   -5.4243
   162         H       17.8212   -3.6924   -6.0730
   163         H       15.6935   -1.7046   -5.1954
   164         H       20.0960   -3.6636   -3.9543
   165         H       16.6308   -0.4597   -2.5247
   166         H       19.3900   -1.6192   -1.7956
   167         H       19.2218    1.1865   -3.1340
   168         H       21.3899   -0.8129   -4.0498
   169         H       16.9746    1.1399   -5.1875
   170         H       20.4502   -2.1204   -6.6414
   171         H       17.7639   -0.8552   -7.3908
   172         H       19.7998    0.7116   -5.9888

 General Reference for PM7:
 "Optimization of Parameters for Semiempirical Methods VI: More Modifications to the 
 NDDO Approximations and Re-optimization of Parameters", J. J. P. Stewart, J. Mol. Mod., 1:32, 19 (2013)
 http://www.springerlink.com/openurl.asp?genre=article&id=doi:10.1007/s00894-012-1667-x

           Empirical Formula: C63 H68 S B40  =   172 atoms



      MOLECULAR POINT GROUP   :   C1  


      RHF CALCULATION, NO. OF DOUBLY OCCUPIED LEVELS = 223


          Geometry optimization using BFGS
 TEST ON GRADIENT SATISFIED
                    HOWEVER, A COMPONENT OF GRADIENT IS LARGER THAN  1.00

 CYCLE:     1 TIME:   1.808 TIME LEFT:  2.00D  GRAD.:    18.225 HEAT:  512.4038
 TEST ON X SATISFIED
                    HOWEVER, A COMPONENT OF GRADIENT IS LARGER THAN  1.00

 CYCLE:     2 TIME:   1.020 TIME LEFT:  2.00D  GRAD.:    14.719 HEAT:  512.3277
 TEST ON X SATISFIED
                    HOWEVER, A COMPONENT OF GRADIENT IS LARGER THAN  1.00

 CYCLE:     3 TIME:   1.009 TIME LEFT:  2.00D  GRAD.:    11.806 HEAT:  512.2848
 TEST ON X SATISFIED
                    HOWEVER, A COMPONENT OF GRADIENT IS LARGER THAN  1.00

 CYCLE:     4 TIME:   0.939 TIME LEFT:  2.00D  GRAD.:    11.189 HEAT:  512.2599
 TEST ON X SATISFIED
                    HOWEVER, A COMPONENT OF GRADIENT IS LARGER THAN  1.00

           THERE HAVE BEEN 3 ATTEMPTS TO REDUCE THE GRADIENT.
           DURING THESE ATTEMPTS THE ENERGY DROPPED BY LESS THAN 0.3 KCAL/MOLE
           FURTHER CALCULATION IS NOT JUSTIFIED AT THIS TIME.
           TO CONTINUE, START AGAIN WITH THE WORD "PRECISE"

 -------------------------------------------------------------------------------
PM7 BFGS CHARGE=0
 nanocar2



     GRADIENT TEST NOT PASSED, BUT FURTHER WORK NOT JUSTIFIED 
     SCF FIELD WAS ACHIEVED                                   


                              PM7 CALCULATION
                                                       MOPAC2016 (Version: 16.035L)
                                                       Fri Apr 28 02:46:32 2017
                                                       No. of days remaining = 474




          FINAL HEAT OF FORMATION =        512.23894 KCAL/MOL =    2143.20775 KJ/MOL


          TOTAL ENERGY            =     -11086.50485 EV
          ELECTRONIC ENERGY       =    -182873.07961 EV  POINT GROUP:     C1  
          CORE-CORE REPULSION     =     171786.57476 EV
          COSMO AREA              =       1182.19 SQUARE ANGSTROMS
          COSMO VOLUME            =       1541.05 CUBIC ANGSTROMS

          GRADIENT NORM           =         11.54626
          IONIZATION POTENTIAL    =          8.130039 EV
          HOMO LUMO ENERGIES (EV) =         -8.130 -3.467
          NO. OF FILLED LEVELS    =        223
          MOLECULAR WEIGHT        =       1289.6902

          MOLECULAR DIMENSIONS (Angstroms)

            Atom       Atom       Distance
            H   168    H   101    28.79576
            H   168    H   101    28.42473
            H   171    H   141     7.44170


          SCF CALCULATIONS        =         13
 
          WALL-CLOCK TIME         =          8.065 SECONDS
          COMPUTATION TIME        =          7.987 SECONDS



       FINAL  POINT  AND  DERIVATIVES

   PARAMETER     ATOM    TYPE            VALUE       GRADIENT
      1          1  C    CARTESIAN X    -0.600989     0.425286  KCAL/ANGSTROM
      2          1  C    CARTESIAN Y    -1.349659     0.736239  KCAL/ANGSTROM
      3          1  C    CARTESIAN Z     0.122168    -0.153898  KCAL/ANGSTROM
      4          2  C    CARTESIAN X    -1.296820    -0.616418  KCAL/ANGSTROM
      5          2  C    CARTESIAN Y    -0.116053    -0.044664  KCAL/ANGSTROM
      6          2  C    CARTESIAN Z     0.087770     0.046801  KCAL/ANGSTROM
      7          3  C    CARTESIAN X    -0.604397     0.774762  KCAL/ANGSTROM
      8          3  C    CARTESIAN Y     1.075182     0.663194  KCAL/ANGSTROM
      9          3  C    CARTESIAN Z     0.114297     0.066343  KCAL/ANGSTROM
     10          4  C    CARTESIAN X     0.811081    -0.510619  KCAL/ANGSTROM
     11          4  C    CARTESIAN Y     1.070582    -0.295816  KCAL/ANGSTROM
     12          4  C    CARTESIAN Z     0.165254    -0.004377  KCAL/ANGSTROM
     13          5  C    CARTESIAN X     1.521742    -0.184475  KCAL/ANGSTROM
     14          5  C    CARTESIAN Y    -0.156886     0.604652  KCAL/ANGSTROM
     15          5  C    CARTESIAN Z     0.254864     0.311656  KCAL/ANGSTROM
     16          6  C    CARTESIAN X     0.804485    -1.006544  KCAL/ANGSTROM
     17          6  C    CARTESIAN Y    -1.350579     0.257019  KCAL/ANGSTROM
     18          6  C    CARTESIAN Z     0.242236    -0.071744  KCAL/ANGSTROM
     19          7  C    CARTESIAN X    -1.286047    -0.411947  KCAL/ANGSTROM
     20          7  C    CARTESIAN Y    -2.531921     0.075389  KCAL/ANGSTROM
     21          7  C    CARTESIAN Z    -0.014134    -0.148576  KCAL/ANGSTROM
     22          8  C    CARTESIAN X    -1.907563     0.707166  KCAL/ANGSTROM
     23          8  C    CARTESIAN Y    -3.616891     1.678688  KCAL/ANGSTROM
     24          8  C    CARTESIAN Z    -0.178815    -0.254786  KCAL/ANGSTROM
     25          9  C    CARTESIAN X    -2.526901    -0.867569  KCAL/ANGSTROM
     26          9  C    CARTESIAN Y    -4.714227    -0.594249  KCAL/ANGSTROM
     27          9  C    CARTESIAN Z    -0.354437    -0.466101  KCAL/ANGSTROM
     28         10  C    CARTESIAN X     1.450380    -0.772266  KCAL/ANGSTROM
     29         10  C    CARTESIAN Y     2.281067    -1.075302  KCAL/ANGSTROM
     30         10  C    CARTESIAN Z     0.086469    -0.189497  KCAL/ANGSTROM
     31         11  C    CARTESIAN X     1.978780     0.574313  KCAL/ANGSTROM
     32         11  C    CARTESIAN Y     3.429991     0.010405  KCAL/ANGSTROM
     33         11  C    CARTESIAN Z    -0.067568    -0.169435  KCAL/ANGSTROM
     34         12  C    CARTESIAN X     2.471858     0.057866  KCAL/ANGSTROM
     35         12  C    CARTESIAN Y     4.578911     0.265708  KCAL/ANGSTROM
     36         12  C    CARTESIAN Z    -0.222711    -0.007525  KCAL/ANGSTROM
     37         13  C    CARTESIAN X     2.925734    -0.822188  KCAL/ANGSTROM
     38         13  C    CARTESIAN Y    -0.160900    -0.417041  KCAL/ANGSTROM
     39         13  C    CARTESIAN Z     0.249353     0.136481  KCAL/ANGSTROM
     40         14  C    CARTESIAN X     4.138095    -0.780016  KCAL/ANGSTROM
     41         14  C    CARTESIAN Y    -0.148783     0.231651  KCAL/ANGSTROM
     42         14  C    CARTESIAN Z     0.138930     0.422228  KCAL/ANGSTROM
     43         15  C    CARTESIAN X     5.490144     1.333566  KCAL/ANGSTROM
     44         15  C    CARTESIAN Y    -0.075545    -0.062139  KCAL/ANGSTROM
     45         15  C    CARTESIAN Z    -0.251644    -0.694432  KCAL/ANGSTROM
     46         16  C    CARTESIAN X     5.883937     0.557617  KCAL/ANGSTROM
     47         16  C    CARTESIAN Y     1.088406    -1.211178  KCAL/ANGSTROM
     48         16  C    CARTESIAN Z    -0.930727     0.343532  KCAL/ANGSTROM
     49         17  C    CARTESIAN X     7.113295    -0.552745  KCAL/ANGSTROM
     50         17  C    CARTESIAN Y     1.130127    -0.345171  KCAL/ANGSTROM
     51         17  C    CARTESIAN Z    -1.573522     0.393697  KCAL/ANGSTROM
     52         18  C    CARTESIAN X     7.907895     0.428801  KCAL/ANGSTROM
     53         18  C    CARTESIAN Y    -0.014004     0.422244  KCAL/ANGSTROM
     54         18  C    CARTESIAN Z    -1.603079    -0.186595  KCAL/ANGSTROM
     55         19  C    CARTESIAN X     7.535410     0.244500  KCAL/ANGSTROM
     56         19  C    CARTESIAN Y    -1.185944     0.208091  KCAL/ANGSTROM
     57         19  C    CARTESIAN Z    -0.932463     0.206882  KCAL/ANGSTROM
     58         20  C    CARTESIAN X     6.371937     1.069696  KCAL/ANGSTROM
     59         20  C    CARTESIAN Y    -1.160314    -0.031130  KCAL/ANGSTROM
     60         20  C    CARTESIAN Z    -0.155713    -0.300024  KCAL/ANGSTROM
     61         21  S    CARTESIAN X     9.419590    -0.239637  KCAL/ANGSTROM
     62         21  S    CARTESIAN Y     0.045768     0.587460  KCAL/ANGSTROM
     63         21  S    CARTESIAN Z    -2.499805    -0.168520  KCAL/ANGSTROM
     64         22  C    CARTESIAN X    10.382195     0.401339  KCAL/ANGSTROM
     65         22  C    CARTESIAN Y    -1.105748    -1.692104  KCAL/ANGSTROM
     66         22  C    CARTESIAN Z    -1.568568     0.493781  KCAL/ANGSTROM
     67         23  C    CARTESIAN X     9.788870    -0.616240  KCAL/ANGSTROM
     68         23  C    CARTESIAN Y    -2.215650     0.681150  KCAL/ANGSTROM
     69         23  C    CARTESIAN Z    -0.950399    -0.919990  KCAL/ANGSTROM
     70         24  C    CARTESIAN X     8.330986     0.535407  KCAL/ANGSTROM
     71         24  C    CARTESIAN Y    -2.419079    -0.060294  KCAL/ANGSTROM
     72         24  C    CARTESIAN Z    -1.080469     0.183382  KCAL/ANGSTROM
     73         25  C    CARTESIAN X    11.755058    -0.919035  KCAL/ANGSTROM
     74         25  C    CARTESIAN Y    -0.877491    -0.025876  KCAL/ANGSTROM
     75         25  C    CARTESIAN Z    -1.518318     0.783189  KCAL/ANGSTROM
     76         26  C    CARTESIAN X    12.588676    -0.176817  KCAL/ANGSTROM
     77         26  C    CARTESIAN Y    -1.841456    -0.404176  KCAL/ANGSTROM
     78         26  C    CARTESIAN Z    -0.966255    -0.052348  KCAL/ANGSTROM
     79         27  C    CARTESIAN X    12.025618     0.432053  KCAL/ANGSTROM
     80         27  C    CARTESIAN Y    -3.005239    -0.817476  KCAL/ANGSTROM
     81         27  C    CARTESIAN Z    -0.424761    -0.266154  KCAL/ANGSTROM
     82         28  C    CARTESIAN X    10.632844     2.836441  KCAL/ANGSTROM
     83         28  C    CARTESIAN Y    -3.131529    -0.652892  KCAL/ANGSTROM
     84         28  C    CARTESIAN Z    -0.311141     0.753345  KCAL/ANGSTROM
     85         29  C    CARTESIAN X     7.783246    -0.836557  KCAL/ANGSTROM
     86         29  C    CARTESIAN Y    -3.610067    -1.291103  KCAL/ANGSTROM
     87         29  C    CARTESIAN Z    -1.396652    -0.271443  KCAL/ANGSTROM
     88         30  C    CARTESIAN X     6.343858     0.465450  KCAL/ANGSTROM
     89         30  C    CARTESIAN Y    -4.038153     0.015017  KCAL/ANGSTROM
     90         30  C    CARTESIAN Z    -1.703993    -0.335086  KCAL/ANGSTROM
     91         31  C    CARTESIAN X     6.179500    -0.234946  KCAL/ANGSTROM
     92         31  C    CARTESIAN Y    -5.237010     0.286391  KCAL/ANGSTROM
     93         31  C    CARTESIAN Z    -0.706530    -0.292527  KCAL/ANGSTROM
     94         32  C    CARTESIAN X     7.558886     0.654885  KCAL/ANGSTROM
     95         32  C    CARTESIAN Y    -5.826744    -1.349320  KCAL/ANGSTROM
     96         32  C    CARTESIAN Z    -0.731916     0.402966  KCAL/ANGSTROM
     97         33  C    CARTESIAN X     8.450178    -0.038674  KCAL/ANGSTROM
     98         33  C    CARTESIAN Y    -4.936376    -0.108889  KCAL/ANGSTROM
     99         33  C    CARTESIAN Z    -1.328983     0.864956  KCAL/ANGSTROM
    100         34  C    CARTESIAN X     7.946627    -1.736053  KCAL/ANGSTROM
    101         34  C    CARTESIAN Y    -7.118614     1.722441  KCAL/ANGSTROM
    102         34  C    CARTESIAN Z    -0.349779     1.143880  KCAL/ANGSTROM
    103         35  C    CARTESIAN X     9.186948     0.536771  KCAL/ANGSTROM
    104         35  C    CARTESIAN Y    -7.567050     0.435445  KCAL/ANGSTROM
    105         35  C    CARTESIAN Z    -0.742013    -0.293222  KCAL/ANGSTROM
    106         36  C    CARTESIAN X    10.016066     1.331856  KCAL/ANGSTROM
    107         36  C    CARTESIAN Y    -6.766944     0.324302  KCAL/ANGSTROM
    108         36  C    CARTESIAN Z    -1.575870     1.326830  KCAL/ANGSTROM
    109         37  C    CARTESIAN X     9.662858     1.572720  KCAL/ANGSTROM
    110         37  C    CARTESIAN Y    -5.424398    -0.202689  KCAL/ANGSTROM
    111         37  C    CARTESIAN Z    -1.865306    -0.063019  KCAL/ANGSTROM
    112         38  C    CARTESIAN X    11.158655    -1.003997  KCAL/ANGSTROM
    113         38  C    CARTESIAN Y    -7.327892    -1.184851  KCAL/ANGSTROM
    114         38  C    CARTESIAN Z    -2.208801     1.561312  KCAL/ANGSTROM
    115         39  C    CARTESIAN X    11.910974     0.046779  KCAL/ANGSTROM
    116         39  C    CARTESIAN Y    -6.581727     1.382136  KCAL/ANGSTROM
    117         39  C    CARTESIAN Z    -3.079010     0.157496  KCAL/ANGSTROM
    118         40  C    CARTESIAN X    11.561905     0.518986  KCAL/ANGSTROM
    119         40  C    CARTESIAN Y    -5.237595     0.824925  KCAL/ANGSTROM
    120         40  C    CARTESIAN Z    -3.362744    -0.270559  KCAL/ANGSTROM
    121         41  C    CARTESIAN X    10.461865     0.833364  KCAL/ANGSTROM
    122         41  C    CARTESIAN Y    -4.675405    -1.244818  KCAL/ANGSTROM
    123         41  C    CARTESIAN Z    -2.772026     0.948401  KCAL/ANGSTROM
    124         42  C    CARTESIAN X     5.143317    -0.071899  KCAL/ANGSTROM
    125         42  C    CARTESIAN Y    -3.117086    -0.644106  KCAL/ANGSTROM
    126         42  C    CARTESIAN Z    -1.691902     0.029722  KCAL/ANGSTROM
    127         43  C    CARTESIAN X    12.852658    -0.251561  KCAL/ANGSTROM
    128         43  C    CARTESIAN Y    -4.124323     0.791846  KCAL/ANGSTROM
    129         43  C    CARTESIAN Z    -0.228853     0.023996  KCAL/ANGSTROM
    130         44  C    CARTESIAN X    13.518998    -0.061671  KCAL/ANGSTROM
    131         44  C    CARTESIAN Y    -5.137471     0.396210  KCAL/ANGSTROM
    132         44  C    CARTESIAN Z    -0.328321     0.250070  KCAL/ANGSTROM
    133         45  C    CARTESIAN X    14.123979     0.095994  KCAL/ANGSTROM
    134         45  C    CARTESIAN Y    -6.369969    -1.752526  KCAL/ANGSTROM
    135         45  C    CARTESIAN Z    -0.616868    -0.094665  KCAL/ANGSTROM
    136         46  C    CARTESIAN X    15.291234     0.952748  KCAL/ANGSTROM
    137         46  C    CARTESIAN Y    -6.456377     1.324817  KCAL/ANGSTROM
    138         46  C    CARTESIAN Z    -1.418141    -1.069555  KCAL/ANGSTROM
    139         47  C    CARTESIAN X    15.759822    -0.449546  KCAL/ANGSTROM
    140         47  C    CARTESIAN Y    -7.726586    -0.316589  KCAL/ANGSTROM
    141         47  C    CARTESIAN Z    -1.841374    -0.455098  KCAL/ANGSTROM
    142         48  C    CARTESIAN X    15.042930     0.148670  KCAL/ANGSTROM
    143         48  C    CARTESIAN Y    -8.864335     0.140368  KCAL/ANGSTROM
    144         48  C    CARTESIAN Z    -1.544439    -0.395516  KCAL/ANGSTROM
    145         49  C    CARTESIAN X    13.846988    -0.363277  KCAL/ANGSTROM
    146         49  C    CARTESIAN Y    -8.785224     0.357192  KCAL/ANGSTROM
    147         49  C    CARTESIAN Z    -0.786016    -0.212320  KCAL/ANGSTROM
    148         50  C    CARTESIAN X    13.440419     0.812039  KCAL/ANGSTROM
    149         50  C    CARTESIAN Y    -7.536053     1.070079  KCAL/ANGSTROM
    150         50  C    CARTESIAN Z    -0.275911    -0.354550  KCAL/ANGSTROM
    151         51  C    CARTESIAN X    13.043697    -0.906713  KCAL/ANGSTROM
    152         51  C    CARTESIAN Y    -9.891634     1.404510  KCAL/ANGSTROM
    153         51  C    CARTESIAN Z    -0.664905    -0.207073  KCAL/ANGSTROM
    154         52  C    CARTESIAN X    12.368805    -0.487136  KCAL/ANGSTROM
    155         52  C    CARTESIAN Y   -10.957754    -0.427530  KCAL/ANGSTROM
    156         52  C    CARTESIAN Z    -0.707797    -0.081387  KCAL/ANGSTROM
    157         53  C    CARTESIAN X    11.661813    -0.816389  KCAL/ANGSTROM
    158         53  C    CARTESIAN Y   -12.012484    -0.867497  KCAL/ANGSTROM
    159         53  C    CARTESIAN Z    -0.773653    -0.208733  KCAL/ANGSTROM
    160         54  C    CARTESIAN X    15.970317    -0.308889  KCAL/ANGSTROM
    161         54  C    CARTESIAN Y    -5.350936    -2.663325  KCAL/ANGSTROM
    162         54  C    CARTESIAN Z    -1.867028     1.645565  KCAL/ANGSTROM
    163         55  C    CARTESIAN X    16.554864     1.010323  KCAL/ANGSTROM
    164         55  C    CARTESIAN Y    -4.381071     1.068419  KCAL/ANGSTROM
    165         55  C    CARTESIAN Z    -2.450678    -0.812656  KCAL/ANGSTROM
    166         56  C    CARTESIAN X    17.153452    -0.310052  KCAL/ANGSTROM
    167         56  C    CARTESIAN Y    -3.448982    -1.733483  KCAL/ANGSTROM
    168         56  C    CARTESIAN Z    -3.054488     0.112314  KCAL/ANGSTROM
    169         57  H    CARTESIAN X    -2.389140    -0.045884  KCAL/ANGSTROM
    170         57  H    CARTESIAN Y    -0.126908     0.057484  KCAL/ANGSTROM
    171         57  H    CARTESIAN Z     0.026428    -0.037601  KCAL/ANGSTROM
    172         58  H    CARTESIAN X    -1.136102    -0.045399  KCAL/ANGSTROM
    173         58  H    CARTESIAN Y     2.025207     0.166213  KCAL/ANGSTROM
    174         58  H    CARTESIAN Z     0.076994    -0.253373  KCAL/ANGSTROM
    175         59  H    CARTESIAN X     1.332011    -0.398284  KCAL/ANGSTROM
    176         59  H    CARTESIAN Y    -2.308765    -0.315112  KCAL/ANGSTROM
    177         59  H    CARTESIAN Z     0.302207     0.100112  KCAL/ANGSTROM
    178         60  H    CARTESIAN X     5.216739    -0.445895  KCAL/ANGSTROM
    179         60  H    CARTESIAN Y     1.949842     0.178953  KCAL/ANGSTROM
    180         60  H    CARTESIAN Z    -0.962090    -0.029513  KCAL/ANGSTROM
    181         61  H    CARTESIAN X     7.430334    -0.007318  KCAL/ANGSTROM
    182         61  H    CARTESIAN Y     2.054323     0.462401  KCAL/ANGSTROM
    183         61  H    CARTESIAN Z    -2.062531     0.038354  KCAL/ANGSTROM
    184         62  H    CARTESIAN X     6.131464     0.087765  KCAL/ANGSTROM
    185         62  H    CARTESIAN Y    -2.008750    -0.073524  KCAL/ANGSTROM
    186         62  H    CARTESIAN Z     0.487317     0.209624  KCAL/ANGSTROM
    187         63  H    CARTESIAN X    12.193003    -0.021101  KCAL/ANGSTROM
    188         63  H    CARTESIAN Y     0.033434     0.575491  KCAL/ANGSTROM
    189         63  H    CARTESIAN Z    -1.933329     0.003299  KCAL/ANGSTROM
    190         64  H    CARTESIAN X    13.669546     0.160582  KCAL/ANGSTROM
    191         64  H    CARTESIAN Y    -1.707091     0.732859  KCAL/ANGSTROM
    192         64  H    CARTESIAN Z    -0.975123     0.230955  KCAL/ANGSTROM
    193         65  H    CARTESIAN X    10.210524    -0.142389  KCAL/ANGSTROM
    194         65  H    CARTESIAN Y    -3.986279    -0.287715  KCAL/ANGSTROM
    195         65  H    CARTESIAN Z     0.221982     0.086960  KCAL/ANGSTROM
    196         66  H    CARTESIAN X     6.397731    -0.018258  KCAL/ANGSTROM
    197         66  H    CARTESIAN Y    -4.459447     0.150752  KCAL/ANGSTROM
    198         66  H    CARTESIAN Z    -2.751579     0.200249  KCAL/ANGSTROM
    199         67  H    CARTESIAN X     5.406664    -0.346144  KCAL/ANGSTROM
    200         67  H    CARTESIAN Y    -5.946788    -0.204604  KCAL/ANGSTROM
    201         67  H    CARTESIAN Z    -1.040335    -0.210522  KCAL/ANGSTROM
    202         68  H    CARTESIAN X     5.882811     0.075506  KCAL/ANGSTROM
    203         68  H    CARTESIAN Y    -4.886833    -0.052136  KCAL/ANGSTROM
    204         68  H    CARTESIAN Z     0.295009    -0.457602  KCAL/ANGSTROM
    205         69  H    CARTESIAN X     7.268206    -0.109825  KCAL/ANGSTROM
    206         69  H    CARTESIAN Y    -7.747126    -0.046587  KCAL/ANGSTROM
    207         69  H    CARTESIAN Z     0.221824     0.400794  KCAL/ANGSTROM
    208         70  H    CARTESIAN X     9.530083    -0.142071  KCAL/ANGSTROM
    209         70  H    CARTESIAN Y    -8.563417    -0.283675  KCAL/ANGSTROM
    210         70  H    CARTESIAN Z    -0.455051     0.807237  KCAL/ANGSTROM
    211         71  H    CARTESIAN X    11.399639    -0.119230  KCAL/ANGSTROM
    212         71  H    CARTESIAN Y    -8.373858    -0.116297  KCAL/ANGSTROM
    213         71  H    CARTESIAN Z    -2.015703    -0.148839  KCAL/ANGSTROM
    214         72  H    CARTESIAN X    12.775944    -0.370359  KCAL/ANGSTROM
    215         72  H    CARTESIAN Y    -7.012901     0.173453  KCAL/ANGSTROM
    216         72  H    CARTESIAN Z    -3.577698     0.115374  KCAL/ANGSTROM
    217         73  H    CARTESIAN X    12.167112    -0.652974  KCAL/ANGSTROM
    218         73  H    CARTESIAN Y    -4.669788    -0.092744  KCAL/ANGSTROM
    219         73  H    CARTESIAN Z    -4.066178     0.038613  KCAL/ANGSTROM
    220         74  H    CARTESIAN X    10.160925    -0.202771  KCAL/ANGSTROM
    221         74  H    CARTESIAN Y    -3.653698     0.298755  KCAL/ANGSTROM
    222         74  H    CARTESIAN Z    -3.009558     0.081979  KCAL/ANGSTROM
    223         75  H    CARTESIAN X     4.747761    -0.244272  KCAL/ANGSTROM
    224         75  H    CARTESIAN Y    -2.933969    -0.307755  KCAL/ANGSTROM
    225         75  H    CARTESIAN Z    -0.686055     0.479223  KCAL/ANGSTROM
    226         76  H    CARTESIAN X     4.314341    -0.196149  KCAL/ANGSTROM
    227         76  H    CARTESIAN Y    -3.560581     0.006899  KCAL/ANGSTROM
    228         76  H    CARTESIAN Z    -2.264444    -0.230368  KCAL/ANGSTROM
    229         77  H    CARTESIAN X     5.360663     0.007835  KCAL/ANGSTROM
    230         77  H    CARTESIAN Y    -2.150481     0.434085  KCAL/ANGSTROM
    231         77  H    CARTESIAN Z    -2.165592     0.301834  KCAL/ANGSTROM
    232         78  H    CARTESIAN X    16.674784    -0.329306  KCAL/ANGSTROM
    233         78  H    CARTESIAN Y    -7.788796    -0.005974  KCAL/ANGSTROM
    234         78  H    CARTESIAN Z    -2.427826     0.004229  KCAL/ANGSTROM
    235         79  H    CARTESIAN X    15.369300    -0.197539  KCAL/ANGSTROM
    236         79  H    CARTESIAN Y    -9.841642    -0.131435  KCAL/ANGSTROM
    237         79  H    CARTESIAN Z    -1.913041    -0.521021  KCAL/ANGSTROM
    238         80  H    CARTESIAN X    12.542565     0.288688  KCAL/ANGSTROM
    239         80  H    CARTESIAN Y    -7.477122    -0.060766  KCAL/ANGSTROM
    240         80  H    CARTESIAN Z     0.350468     0.153475  KCAL/ANGSTROM
    241         81  C    CARTESIAN X    -3.095565    -0.348501  KCAL/ANGSTROM
    242         81  C    CARTESIAN Y    -5.930880    -0.120743  KCAL/ANGSTROM
    243         81  C    CARTESIAN Z    -0.525517    -0.401916  KCAL/ANGSTROM
    244         82  B    CARTESIAN X    -4.917632     0.022542  KCAL/ANGSTROM
    245         82  B    CARTESIAN Y    -6.144089     0.037571  KCAL/ANGSTROM
    246         82  B    CARTESIAN Z    -0.588277     0.266127  KCAL/ANGSTROM
    247         83  B    CARTESIAN X    -3.868564     0.010350  KCAL/ANGSTROM
    248         83  B    CARTESIAN Y    -6.359201    -0.547592  KCAL/ANGSTROM
    249         83  B    CARTESIAN Z    -2.036477     0.313358  KCAL/ANGSTROM
    250         84  B    CARTESIAN X    -3.900524     0.250178  KCAL/ANGSTROM
    251         84  B    CARTESIAN Y    -6.701153    -0.739655  KCAL/ANGSTROM
    252         84  B    CARTESIAN Z     0.808430    -0.757643  KCAL/ANGSTROM
    253         85  B    CARTESIAN X    -2.292737    -0.692377  KCAL/ANGSTROM
    254         85  B    CARTESIAN Y    -7.170866    -0.153455  KCAL/ANGSTROM
    255         85  B    CARTESIAN Z    -1.551806     0.376769  KCAL/ANGSTROM
    256         86  B    CARTESIAN X    -2.319537    -0.098494  KCAL/ANGSTROM
    257         86  B    CARTESIAN Y    -7.409560     0.079679  KCAL/ANGSTROM
    258         86  B    CARTESIAN Z     0.215255     0.003946  KCAL/ANGSTROM
    259         87  B    CARTESIAN X    -2.697223     0.180331  KCAL/ANGSTROM
    260         87  B    CARTESIAN Y    -8.783666    -0.276988  KCAL/ANGSTROM
    261         87  B    CARTESIAN Z    -0.863706    -0.339837  KCAL/ANGSTROM
    262         88  B    CARTESIAN X    -3.666439    -0.101906  KCAL/ANGSTROM
    263         88  B    CARTESIAN Y    -8.481026     0.251847  KCAL/ANGSTROM
    264         88  B    CARTESIAN Z     0.636463    -0.095234  KCAL/ANGSTROM
    265         89  B    CARTESIAN X    -3.606982     0.222287  KCAL/ANGSTROM
    266         89  B    CARTESIAN Y    -8.120931     0.033761  KCAL/ANGSTROM
    267         89  B    CARTESIAN Z    -2.280003     0.044758  KCAL/ANGSTROM
    268         90  B    CARTESIAN X    -5.232293     0.137606  KCAL/ANGSTROM
    269         90  B    CARTESIAN Y    -7.728393     0.135633  KCAL/ANGSTROM
    270         90  B    CARTESIAN Z     0.133147    -0.218358  KCAL/ANGSTROM
    271         91  B    CARTESIAN X    -5.201847     0.542860  KCAL/ANGSTROM
    272         91  B    CARTESIAN Y    -7.526063     0.024675  KCAL/ANGSTROM
    273         91  B    CARTESIAN Z    -1.667128     0.191986  KCAL/ANGSTROM
    274         92  C    CARTESIAN X    -4.437402    -0.226523  KCAL/ANGSTROM
    275         92  C    CARTESIAN Y    -8.910847    -0.330627  KCAL/ANGSTROM
    276         92  C    CARTESIAN Z    -0.909022    -0.020595  KCAL/ANGSTROM
    277         93  H    CARTESIAN X    -5.666023     0.049160  KCAL/ANGSTROM
    278         93  H    CARTESIAN Y    -5.194460    -0.200698  KCAL/ANGSTROM
    279         93  H    CARTESIAN Z    -0.488651    -0.084141  KCAL/ANGSTROM
    280         94  H    CARTESIAN X    -3.924065    -0.105381  KCAL/ANGSTROM
    281         94  H    CARTESIAN Y    -5.579910     0.110828  KCAL/ANGSTROM
    282         94  H    CARTESIAN Z    -2.967436    -0.348828  KCAL/ANGSTROM
    283         95  H    CARTESIAN X    -3.983771    -0.009999  KCAL/ANGSTROM
    284         95  H    CARTESIAN Y    -6.168388     0.203269  KCAL/ANGSTROM
    285         95  H    CARTESIAN Z     1.899056     0.870679  KCAL/ANGSTROM
    286         96  H    CARTESIAN X    -1.251729     0.310524  KCAL/ANGSTROM
    287         96  H    CARTESIAN Y    -6.930137     0.106892  KCAL/ANGSTROM
    288         96  H    CARTESIAN Z    -2.129623    -0.215031  KCAL/ANGSTROM
    289         97  H    CARTESIAN X    -1.300823     0.006486  KCAL/ANGSTROM
    290         97  H    CARTESIAN Y    -7.321310     0.016406  KCAL/ANGSTROM
    291         97  H    CARTESIAN Z     0.868576    -0.145623  KCAL/ANGSTROM
    292         98  H    CARTESIAN X    -1.979903    -0.249290  KCAL/ANGSTROM
    293         98  H    CARTESIAN Y    -9.755222     0.272137  KCAL/ANGSTROM
    294         98  H    CARTESIAN Z    -0.970584     0.180587  KCAL/ANGSTROM
    295         99  H    CARTESIAN X    -3.634027    -0.015550  KCAL/ANGSTROM
    296         99  H    CARTESIAN Y    -9.243968    -0.000779  KCAL/ANGSTROM
    297         99  H    CARTESIAN Z     1.579582     0.090299  KCAL/ANGSTROM
    298        100  H    CARTESIAN X    -3.525313     0.016137  KCAL/ANGSTROM
    299        100  H    CARTESIAN Y    -8.637615     0.021760  KCAL/ANGSTROM
    300        100  H    CARTESIAN Z    -3.374640     0.054504  KCAL/ANGSTROM
    301        101  H    CARTESIAN X    -6.254923    -0.151477  KCAL/ANGSTROM
    302        101  H    CARTESIAN Y    -7.982681     0.007691  KCAL/ANGSTROM
    303        101  H    CARTESIAN Z     0.734973     0.039380  KCAL/ANGSTROM
    304        102  H    CARTESIAN X    -6.202630    -0.325931  KCAL/ANGSTROM
    305        102  H    CARTESIAN Y    -7.637423    -0.177151  KCAL/ANGSTROM
    306        102  H    CARTESIAN Z    -2.345260    -0.236679  KCAL/ANGSTROM
    307        103  H    CARTESIAN X    -4.891524     0.020613  KCAL/ANGSTROM
    308        103  H    CARTESIAN Y    -9.908855     0.012295  KCAL/ANGSTROM
    309        103  H    CARTESIAN Z    -1.036699     0.094818  KCAL/ANGSTROM
    310        104  C    CARTESIAN X     3.027427    -0.591393  KCAL/ANGSTROM
    311        104  C    CARTESIAN Y     5.821304    -0.515018  KCAL/ANGSTROM
    312        104  C    CARTESIAN Z    -0.383403    -0.026462  KCAL/ANGSTROM
    313        105  B    CARTESIAN X     4.631009    -0.041656  KCAL/ANGSTROM
    314        105  B    CARTESIAN Y     5.912217     0.041323  KCAL/ANGSTROM
    315        105  B    CARTESIAN Z    -1.104743     0.048002  KCAL/ANGSTROM
    316        106  B    CARTESIAN X     3.212619    -0.572981  KCAL/ANGSTROM
    317        106  B    CARTESIAN Y     6.543019     0.273083  KCAL/ANGSTROM
    318        106  B    CARTESIAN Z    -2.034255    -0.459206  KCAL/ANGSTROM
    319        107  B    CARTESIAN X     4.374545    -0.097441  KCAL/ANGSTROM
    320        107  B    CARTESIAN Y     6.273894    -0.144091  KCAL/ANGSTROM
    321        107  B    CARTESIAN Z     0.682005     0.161641  KCAL/ANGSTROM
    322        108  B    CARTESIAN X     2.052769     1.006648  KCAL/ANGSTROM
    323        108  B    CARTESIAN Y     7.206719     0.555089  KCAL/ANGSTROM
    324        108  B    CARTESIAN Z    -0.806983     0.248863  KCAL/ANGSTROM
    325        109  B    CARTESIAN X     2.783478    -0.541409  KCAL/ANGSTROM
    326        109  B    CARTESIAN Y     7.100091     0.423305  KCAL/ANGSTROM
    327        109  B    CARTESIAN Z     0.861151     0.099342  KCAL/ANGSTROM
    328        110  B    CARTESIAN X     2.835914     0.014228  KCAL/ANGSTROM
    329        110  B    CARTESIAN Y     8.636562    -0.121082  KCAL/ANGSTROM
    330        110  B    CARTESIAN Z    -0.034083    -0.039875  KCAL/ANGSTROM
    331        111  B    CARTESIAN X     4.294087    -0.219776  KCAL/ANGSTROM
    332        111  B    CARTESIAN Y     8.058898    -0.099163  KCAL/ANGSTROM
    333        111  B    CARTESIAN Z     0.872327    -0.200304  KCAL/ANGSTROM
    334        112  B    CARTESIAN X     3.106936     0.087188  KCAL/ANGSTROM
    335        112  B    CARTESIAN Y     8.300453     0.296244  KCAL/ANGSTROM
    336        112  B    CARTESIAN Z    -1.789188     0.083543  KCAL/ANGSTROM
    337        113  B    CARTESIAN X     5.439157     0.062396  KCAL/ANGSTROM
    338        113  B    CARTESIAN Y     7.303782    -0.033137  KCAL/ANGSTROM
    339        113  B    CARTESIAN Z    -0.312811     0.112425  KCAL/ANGSTROM
    340        114  B    CARTESIAN X     4.720741     0.308382  KCAL/ANGSTROM
    341        114  B    CARTESIAN Y     7.493498     0.226480  KCAL/ANGSTROM
    342        114  B    CARTESIAN Z    -1.964837    -0.401135  KCAL/ANGSTROM
    343        115  C    CARTESIAN X     4.461964     0.409059  KCAL/ANGSTROM
    344        115  C    CARTESIAN Y     8.726249     0.542754  KCAL/ANGSTROM
    345        115  C    CARTESIAN Z    -0.739096     0.166288  KCAL/ANGSTROM
    346        116  H    CARTESIAN X     5.231033    -0.113818  KCAL/ANGSTROM
    347        116  H    CARTESIAN Y     4.922741    -0.097635  KCAL/ANGSTROM
    348        116  H    CARTESIAN Z    -1.473459    -0.073040  KCAL/ANGSTROM
    349        117  H    CARTESIAN X     2.811124    -0.248860  KCAL/ANGSTROM
    350        117  H    CARTESIAN Y     5.980280     0.441842  KCAL/ANGSTROM
    351        117  H    CARTESIAN Z    -3.032805     0.135249  KCAL/ANGSTROM
    352        118  H    CARTESIAN X     4.788146    -0.326877  KCAL/ANGSTROM
    353        118  H    CARTESIAN Y     5.525106     0.126243  KCAL/ANGSTROM
    354        118  H    CARTESIAN Z     1.545022    -0.207340  KCAL/ANGSTROM
    355        119  H    CARTESIAN X     0.850350    -0.731288  KCAL/ANGSTROM
    356        119  H    CARTESIAN Y     7.136101     0.062671  KCAL/ANGSTROM
    357        119  H    CARTESIAN Z    -0.978367    -0.261387  KCAL/ANGSTROM
    358        120  H    CARTESIAN X     2.091867    -0.017800  KCAL/ANGSTROM
    359        120  H    CARTESIAN Y     6.920728     0.141007  KCAL/ANGSTROM
    360        120  H    CARTESIAN Z     1.843620    -0.159253  KCAL/ANGSTROM
    361        121  H    CARTESIAN X     2.226010    -0.010382  KCAL/ANGSTROM
    362        121  H    CARTESIAN Y     9.628026     0.167249  KCAL/ANGSTROM
    363        121  H    CARTESIAN Z     0.315150    -0.005823  KCAL/ANGSTROM
    364        122  H    CARTESIAN X     4.702219     0.009493  KCAL/ANGSTROM
    365        122  H    CARTESIAN Y     8.641603     0.040421  KCAL/ANGSTROM
    366        122  H    CARTESIAN Z     1.857470     0.051614  KCAL/ANGSTROM
    367        123  H    CARTESIAN X     2.679463    -0.030703  KCAL/ANGSTROM
    368        123  H    CARTESIAN Y     9.059862    -0.024415  KCAL/ANGSTROM
    369        123  H    CARTESIAN Z    -2.635792    -0.041019  KCAL/ANGSTROM
    370        124  H    CARTESIAN X     6.640567    -0.265463  KCAL/ANGSTROM
    371        124  H    CARTESIAN Y     7.365308    -0.074747  KCAL/ANGSTROM
    372        124  H    CARTESIAN Z    -0.146297     0.010078  KCAL/ANGSTROM
    373        125  H    CARTESIAN X     5.428691    -0.056324  KCAL/ANGSTROM
    374        125  H    CARTESIAN Y     7.683828    -0.095812  KCAL/ANGSTROM
    375        125  H    CARTESIAN Z    -2.932644     0.253394  KCAL/ANGSTROM
    376        126  H    CARTESIAN X     4.950378    -0.004075  KCAL/ANGSTROM
    377        126  H    CARTESIAN Y     9.710451    -0.294608  KCAL/ANGSTROM
    378        126  H    CARTESIAN Z    -0.860584    -0.040146  KCAL/ANGSTROM
    379        127  C    CARTESIAN X    11.040861    -0.276303  KCAL/ANGSTROM
    380        127  C    CARTESIAN Y   -13.203311    -0.040222  KCAL/ANGSTROM
    381        127  C    CARTESIAN Z    -0.945672     0.033074  KCAL/ANGSTROM
    382        128  B    CARTESIAN X     9.233105     0.113248  KCAL/ANGSTROM
    383        128  B    CARTESIAN Y   -13.329827    -0.444707  KCAL/ANGSTROM
    384        128  B    CARTESIAN Z    -0.998755     0.097699  KCAL/ANGSTROM
    385        129  B    CARTESIAN X    10.294795    -0.274956  KCAL/ANGSTROM
    386        129  B    CARTESIAN Y   -13.586716    -0.056332  KCAL/ANGSTROM
    387        129  B    CARTESIAN Z    -2.469353    -0.287696  KCAL/ANGSTROM
    388        130  B    CARTESIAN X    10.148988     0.081626  KCAL/ANGSTROM
    389        130  B    CARTESIAN Y   -13.969599    -0.198339  KCAL/ANGSTROM
    390        130  B    CARTESIAN Z     0.397028    -0.205708  KCAL/ANGSTROM
    391        131  B    CARTESIAN X    11.797325     0.713322  KCAL/ANGSTROM
    392        131  B    CARTESIAN Y   -14.500373     0.462284  KCAL/ANGSTROM
    393        131  B    CARTESIAN Z    -2.027986    -0.737801  KCAL/ANGSTROM
    394        132  B    CARTESIAN X    11.737255    -0.184333  KCAL/ANGSTROM
    395        132  B    CARTESIAN Y   -14.651578    -0.090602  KCAL/ANGSTROM
    396        132  B    CARTESIAN Z    -0.235878    -0.002434  KCAL/ANGSTROM
    397        133  B    CARTESIAN X    11.331596     0.307997  KCAL/ANGSTROM
    398        133  B    CARTESIAN Y   -16.053651    -0.610985  KCAL/ANGSTROM
    399        133  B    CARTESIAN Z    -1.305264     0.076099  KCAL/ANGSTROM
    400        134  B    CARTESIAN X    10.363648    -0.149256  KCAL/ANGSTROM
    401        134  B    CARTESIAN Y   -15.724111     0.677851  KCAL/ANGSTROM
    402        134  B    CARTESIAN Z     0.188003    -0.583902  KCAL/ANGSTROM
    403        135  B    CARTESIAN X    10.430785    -0.073501  KCAL/ANGSTROM
    404        135  B    CARTESIAN Y   -15.377845     0.047843  KCAL/ANGSTROM
    405        135  B    CARTESIAN Z    -2.725875     0.123203  KCAL/ANGSTROM
    406        136  B    CARTESIAN X     8.819093     0.387380  KCAL/ANGSTROM
    407        136  B    CARTESIAN Y   -14.937536    -0.085105  KCAL/ANGSTROM
    408        136  B    CARTESIAN Z    -0.331685    -0.213513  KCAL/ANGSTROM
    409        137  B    CARTESIAN X     8.886833     0.333461  KCAL/ANGSTROM
    410        137  B    CARTESIAN Y   -14.660847    -0.076352  KCAL/ANGSTROM
    411        137  B    CARTESIAN Z    -2.119779     0.171238  KCAL/ANGSTROM
    412        138  C    CARTESIAN X     9.579907    -0.143913  KCAL/ANGSTROM
    413        138  C    CARTESIAN Y   -16.117979    -0.370568  KCAL/ANGSTROM
    414        138  C    CARTESIAN Z    -1.368019    -0.084962  KCAL/ANGSTROM
    415        139  H    CARTESIAN X     8.529129    -0.128073  KCAL/ANGSTROM
    416        139  H    CARTESIAN Y   -12.346637     0.005677  KCAL/ANGSTROM
    417        139  H    CARTESIAN Z    -0.890657    -0.038595  KCAL/ANGSTROM
    418        140  H    CARTESIAN X    10.294150     0.070979  KCAL/ANGSTROM
    419        140  H    CARTESIAN Y   -12.798208    -0.074328  KCAL/ANGSTROM
    420        140  H    CARTESIAN Z    -3.393253     0.055167  KCAL/ANGSTROM
    421        141  H    CARTESIAN X    10.071731    -0.031162  KCAL/ANGSTROM
    422        141  H    CARTESIAN Y   -13.438139     0.042617  KCAL/ANGSTROM
    423        141  H    CARTESIAN Z     1.486295     0.039208  KCAL/ANGSTROM
    424        142  H    CARTESIAN X    12.845036    -0.464129  KCAL/ANGSTROM
    425        142  H    CARTESIAN Y   -14.305783    -0.206913  KCAL/ANGSTROM
    426        142  H    CARTESIAN Z    -2.605055     0.284866  KCAL/ANGSTROM
    427        143  H    CARTESIAN X    12.757453     0.243133  KCAL/ANGSTROM
    428        143  H    CARTESIAN Y   -14.606148     0.077709  KCAL/ANGSTROM
    429        143  H    CARTESIAN Z     0.422550     0.026513  KCAL/ANGSTROM
    430        144  H    CARTESIAN X    12.015078    -0.240179  KCAL/ANGSTROM
    431        144  H    CARTESIAN Y   -17.051684     0.278904  KCAL/ANGSTROM
    432        144  H    CARTESIAN Z    -1.387738     0.083575  KCAL/ANGSTROM
    433        145  H    CARTESIAN X    10.387632     0.035477  KCAL/ANGSTROM
    434        145  H    CARTESIAN Y   -16.501671    -0.182159  KCAL/ANGSTROM
    435        145  H    CARTESIAN Z     1.120689     0.457006  KCAL/ANGSTROM
    436        146  H    CARTESIAN X    10.473045     0.010251  KCAL/ANGSTROM
    437        146  H    CARTESIAN Y   -15.897067    -0.104114  KCAL/ANGSTROM
    438        146  H    CARTESIAN Z    -3.822165    -0.181752  KCAL/ANGSTROM
    439        147  H    CARTESIAN X     7.773120    -0.049489  KCAL/ANGSTROM
    440        147  H    CARTESIAN Y   -15.167182    -0.120515  KCAL/ANGSTROM
    441        147  H    CARTESIAN Z     0.239195     0.038418  KCAL/ANGSTROM
    442        148  H    CARTESIAN X     7.887232    -0.188127  KCAL/ANGSTROM
    443        148  H    CARTESIAN Y   -14.699919    -0.070703  KCAL/ANGSTROM
    444        148  H    CARTESIAN Z    -2.807685    -0.170782  KCAL/ANGSTROM
    445        149  H    CARTESIAN X     9.086678     0.075142  KCAL/ANGSTROM
    446        149  H    CARTESIAN Y   -17.095951     0.009323  KCAL/ANGSTROM
    447        149  H    CARTESIAN Z    -1.506512     0.118904  KCAL/ANGSTROM
    448        150  C    CARTESIAN X    17.786614     1.169165  KCAL/ANGSTROM
    449        150  C    CARTESIAN Y    -2.448419     2.159913  KCAL/ANGSTROM
    450        150  C    CARTESIAN Z    -3.747085    -1.200876  KCAL/ANGSTROM
    451        151  B    CARTESIAN X    18.127196    -0.095790  KCAL/ANGSTROM
    452        151  B    CARTESIAN Y    -2.675970    -0.082816  KCAL/ANGSTROM
    453        151  B    CARTESIAN Z    -5.479986    -0.179890  KCAL/ANGSTROM
    454        152  B    CARTESIAN X    16.870936    -0.528101  KCAL/ANGSTROM
    455        152  B    CARTESIAN Y    -1.495504    -0.425912  KCAL/ANGSTROM
    456        152  B    CARTESIAN Z    -4.972114     0.003974  KCAL/ANGSTROM
    457        153  B    CARTESIAN X    19.466769    -0.085496  KCAL/ANGSTROM
    458        153  B    CARTESIAN Y    -2.660322     0.256856  KCAL/ANGSTROM
    459        153  B    CARTESIAN Z    -4.225244    -0.019628  KCAL/ANGSTROM
    460        154  B    CARTESIAN X    17.426085     0.457458  KCAL/ANGSTROM
    461        154  B    CARTESIAN Y    -0.781293    -0.066378  KCAL/ANGSTROM
    462        154  B    CARTESIAN Z    -3.383432    -0.365948  KCAL/ANGSTROM
    463        155  B    CARTESIAN X    19.064699    -0.081330  KCAL/ANGSTROM
    464        155  B    CARTESIAN Y    -1.445655     0.009928  KCAL/ANGSTROM
    465        155  B    CARTESIAN Z    -2.952984    -0.518978  KCAL/ANGSTROM
    466        156  B    CARTESIAN X    18.935705     0.143089  KCAL/ANGSTROM
    467        156  B    CARTESIAN Y     0.156621     0.160455  KCAL/ANGSTROM
    468        156  B    CARTESIAN Z    -3.709755     0.528146  KCAL/ANGSTROM
    469        157  B    CARTESIAN X    20.210028    -0.339767  KCAL/ANGSTROM
    470        157  B    CARTESIAN Y    -1.016654    -0.256039  KCAL/ANGSTROM
    471        157  B    CARTESIAN Z    -4.249259    -0.250348  KCAL/ANGSTROM
    472        158  B    CARTESIAN X    17.599583    -0.162422  KCAL/ANGSTROM
    473        158  B    CARTESIAN Y     0.128988     0.705538  KCAL/ANGSTROM
    474        158  B    CARTESIAN Z    -4.931367    -0.380982  KCAL/ANGSTROM
    475        159  B    CARTESIAN X    19.650846     0.431225  KCAL/ANGSTROM
    476        159  B    CARTESIAN Y    -1.793517    -0.079529  KCAL/ANGSTROM
    477        159  B    CARTESIAN Z    -5.785560    -0.311543  KCAL/ANGSTROM
    478        160  B    CARTESIAN X    18.063225     0.477667  KCAL/ANGSTROM
    479        160  B    CARTESIAN Y    -1.044544    -0.197396  KCAL/ANGSTROM
    480        160  B    CARTESIAN Z    -6.230547     0.527129  KCAL/ANGSTROM
    481        161  C    CARTESIAN X    19.289690    -0.202944  KCAL/ANGSTROM
    482        161  C    CARTESIAN Y    -0.089158    -0.391885  KCAL/ANGSTROM
    483        161  C    CARTESIAN Z    -5.422828     0.232770  KCAL/ANGSTROM
    484        162  H    CARTESIAN X    17.822266     0.074402  KCAL/ANGSTROM
    485        162  H    CARTESIAN Y    -3.691588     0.274944  KCAL/ANGSTROM
    486        162  H    CARTESIAN Z    -6.071816     0.064728  KCAL/ANGSTROM
    487        163  H    CARTESIAN X    15.694795     0.464944  KCAL/ANGSTROM
    488        163  H    CARTESIAN Y    -1.700442    -0.011058  KCAL/ANGSTROM
    489        163  H    CARTESIAN Z    -5.194203     0.043134  KCAL/ANGSTROM
    490        164  H    CARTESIAN X    20.096597     0.005719  KCAL/ANGSTROM
    491        164  H    CARTESIAN Y    -3.663879    -0.098641  KCAL/ANGSTROM
    492        164  H    CARTESIAN Z    -3.954877     0.046254  KCAL/ANGSTROM
    493        165  H    CARTESIAN X    16.630090     0.052838  KCAL/ANGSTROM
    494        165  H    CARTESIAN Y    -0.459264     0.038945  KCAL/ANGSTROM
    495        165  H    CARTESIAN Z    -2.523897    -0.058786  KCAL/ANGSTROM
    496        166  H    CARTESIAN X    19.390179     0.100630  KCAL/ANGSTROM
    497        166  H    CARTESIAN Y    -1.619488    -0.000746  KCAL/ANGSTROM
    498        166  H    CARTESIAN Z    -1.794827     0.014480  KCAL/ANGSTROM
    499        167  H    CARTESIAN X    19.222179    -0.026584  KCAL/ANGSTROM
    500        167  H    CARTESIAN Y     1.186545    -0.053993  KCAL/ANGSTROM
    501        167  H    CARTESIAN Z    -3.133418    -0.181465  KCAL/ANGSTROM
    502        168  H    CARTESIAN X    21.391684     0.550268  KCAL/ANGSTROM
    503        168  H    CARTESIAN Y    -0.811862     0.149339  KCAL/ANGSTROM
    504        168  H    CARTESIAN Z    -4.048153     0.091118  KCAL/ANGSTROM
    505        169  H    CARTESIAN X    16.975732     0.114336  KCAL/ANGSTROM
    506        169  H    CARTESIAN Y     1.138978    -0.189472  KCAL/ANGSTROM
    507        169  H    CARTESIAN Z    -5.185841    -0.018594  KCAL/ANGSTROM
    508        170  H    CARTESIAN X    20.449354    -0.116792  KCAL/ANGSTROM
    509        170  H    CARTESIAN Y    -2.119643     0.105775  KCAL/ANGSTROM
    510        170  H    CARTESIAN Z    -6.640537     0.118638  KCAL/ANGSTROM
    511        171  H    CARTESIAN X    17.761657    -0.091612  KCAL/ANGSTROM
    512        171  H    CARTESIAN Y    -0.854632     0.213869  KCAL/ANGSTROM
    513        171  H    CARTESIAN Z    -7.393124    -0.499601  KCAL/ANGSTROM
    514        172  H    CARTESIAN X    19.800893     0.458942  KCAL/ANGSTROM
    515        172  H    CARTESIAN Y     0.712838     0.594429  KCAL/ANGSTROM
    516        172  H    CARTESIAN Z    -5.990135    -0.401244  KCAL/ANGSTROM




   ATOM   CHEMICAL          X               Y               Z
  NUMBER   SYMBOL      (ANGSTROMS)     (ANGSTROMS)     (ANGSTROMS)
 
     1       C         -0.60098909  *  -1.34965906  *   0.12216767  *
     2       C         -1.29682044  *  -0.11605285  *   0.08777009  *
     3       C         -0.60439684  *   1.07518231  *   0.11429693  *
     4       C          0.81108104  *   1.07058163  *   0.16525445  *
     5       C          1.52174206  *  -0.15688581  *   0.25486435  *
     6       C          0.80448507  *  -1.35057920  *   0.24223594  *
     7       C         -1.28604707  *  -2.53192074  *  -0.01413399  *
     8       C         -1.90756273  *  -3.61689090  *  -0.17881527  *
     9       C         -2.52690067  *  -4.71422701  *  -0.35443657  *
    10       C          1.45038037  *   2.28106710  *   0.08646935  *
    11       C          1.97878040  *   3.42999114  *  -0.06756805  *
    12       C          2.47185827  *   4.57891086  *  -0.22271128  *
    13       C          2.92573439  *  -0.16089980  *   0.24935298  *
    14       C          4.13809486  *  -0.14878287  *   0.13892986  *
    15       C          5.49014435  *  -0.07554512  *  -0.25164355  *
    16       C          5.88393730  *   1.08840627  *  -0.93072733  *
    17       C          7.11329534  *   1.13012736  *  -1.57352247  *
    18       C          7.90789539  *  -0.01400385  *  -1.60307854  *
    19       C          7.53541034  *  -1.18594425  *  -0.93246286  *
    20       C          6.37193652  *  -1.16031373  *  -0.15571250  *
    21       S          9.41959038  *   0.04576838  *  -2.49980482  *
    22       C         10.38219498  *  -1.10574772  *  -1.56856807  *
    23       C          9.78887047  *  -2.21565006  *  -0.95039865  *
    24       C          8.33098649  *  -2.41907886  *  -1.08046926  *
    25       C         11.75505820  *  -0.87749075  *  -1.51831847  *
    26       C         12.58867590  *  -1.84145565  *  -0.96625520  *
    27       C         12.02561819  *  -3.00523891  *  -0.42476125  *
    28       C         10.63284427  *  -3.13152888  *  -0.31114101  *
    29       C          7.78324603  *  -3.61006738  *  -1.39665246  *
    30       C          6.34385757  *  -4.03815296  *  -1.70399332  *
    31       C          6.17950037  *  -5.23701004  *  -0.70652965  *
    32       C          7.55888606  *  -5.82674363  *  -0.73191602  *
    33       C          8.45017804  *  -4.93637643  *  -1.32898261  *
    34       C          7.94662665  *  -7.11861446  *  -0.34977880  *
    35       C          9.18694783  *  -7.56704964  *  -0.74201305  *
    36       C         10.01606609  *  -6.76694431  *  -1.57587021  *
    37       C          9.66285776  *  -5.42439788  *  -1.86530634  *
    38       C         11.15865538  *  -7.32789191  *  -2.20880102  *
    39       C         11.91097432  *  -6.58172669  *  -3.07901010  *
    40       C         11.56190495  *  -5.23759489  *  -3.36274417  *
    41       C         10.46186497  *  -4.67540458  *  -2.77202581  *
    42       C          5.14331706  *  -3.11708560  *  -1.69190161  *
    43       C         12.85265811  *  -4.12432277  *  -0.22885316  *
    44       C         13.51899828  *  -5.13747133  *  -0.32832112  *
    45       C         14.12397940  *  -6.36996855  *  -0.61686801  *
    46       C         15.29123437  *  -6.45637733  *  -1.41814081  *
    47       C         15.75982207  *  -7.72658612  *  -1.84137438  *
    48       C         15.04293007  *  -8.86433478  *  -1.54443932  *
    49       C         13.84698762  *  -8.78522393  *  -0.78601569  *
    50       C         13.44041892  *  -7.53605304  *  -0.27591075  *
    51       C         13.04369667  *  -9.89163449  *  -0.66490491  *
    52       C         12.36880460  * -10.95775370  *  -0.70779667  *
    53       C         11.66181333  * -12.01248395  *  -0.77365274  *
    54       C         15.97031732  *  -5.35093630  *  -1.86702801  *
    55       C         16.55486366  *  -4.38107104  *  -2.45067827  *
    56       C         17.15345232  *  -3.44898234  *  -3.05448833  *
    57       H         -2.38913999  *  -0.12690757  *   0.02642820  *
    58       H         -1.13610183  *   2.02520653  *   0.07699421  *
    59       H          1.33201135  *  -2.30876485  *   0.30220661  *
    60       H          5.21673944  *   1.94984196  *  -0.96208970  *
    61       H          7.43033380  *   2.05432273  *  -2.06253082  *
    62       H          6.13146423  *  -2.00875027  *   0.48731683  *
    63       H         12.19300348  *   0.03343387  *  -1.93332905  *
    64       H         13.66954570  *  -1.70709108  *  -0.97512286  *
    65       H         10.21052414  *  -3.98627928  *   0.22198234  *
    66       H          6.39773058  *  -4.45944744  *  -2.75157950  *
    67       H          5.40666404  *  -5.94678761  *  -1.04033496  *
    68       H          5.88281082  *  -4.88683287  *   0.29500923  *
    69       H          7.26820583  *  -7.74712633  *   0.22182433  *
    70       H          9.53008324  *  -8.56341654  *  -0.45505132  *
    71       H         11.39963937  *  -8.37385841  *  -2.01570330  *
    72       H         12.77594402  *  -7.01290057  *  -3.57769806  *
    73       H         12.16711223  *  -4.66978834  *  -4.06617759  *
    74       H         10.16092547  *  -3.65369788  *  -3.00955837  *
    75       H          4.74776069  *  -2.93396893  *  -0.68605535  *
    76       H          4.31434116  *  -3.56058083  *  -2.26444411  *
    77       H          5.36066300  *  -2.15048074  *  -2.16559241  *
    78       H         16.67478394  *  -7.78879567  *  -2.42782560  *
    79       H         15.36929996  *  -9.84164238  *  -1.91304125  *
    80       H         12.54256518  *  -7.47712247  *   0.35046785  *
    81       C         -3.09556473  *  -5.93088008  *  -0.52551729  *
    82       B         -4.91763176  *  -6.14408936  *  -0.58827679  *
    83       B         -3.86856364  *  -6.35920127  *  -2.03647678  *
    84       B         -3.90052376  *  -6.70115327  *   0.80843007  *
    85       B         -2.29273706  *  -7.17086610  *  -1.55180576  *
    86       B         -2.31953662  *  -7.40956020  *   0.21525459  *
    87       B         -2.69722313  *  -8.78366583  *  -0.86370640  *
    88       B         -3.66643898  *  -8.48102640  *   0.63646273  *
    89       B         -3.60698179  *  -8.12093075  *  -2.28000335  *
    90       B         -5.23229283  *  -7.72839310  *   0.13314728  *
    91       B         -5.20184677  *  -7.52606300  *  -1.66712794  *
    92       C         -4.43740223  *  -8.91084739  *  -0.90902234  *
    93       H         -5.66602257  *  -5.19445957  *  -0.48865130  *
    94       H         -3.92406459  *  -5.57990973  *  -2.96743570  *
    95       H         -3.98377083  *  -6.16838791  *   1.89905609  *
    96       H         -1.25172950  *  -6.93013660  *  -2.12962261  *
    97       H         -1.30082307  *  -7.32130986  *   0.86857582  *
    98       H         -1.97990317  *  -9.75522222  *  -0.97058427  *
    99       H         -3.63402715  *  -9.24396794  *   1.57958247  *
   100       H         -3.52531314  *  -8.63761502  *  -3.37463952  *
   101       H         -6.25492254  *  -7.98268140  *   0.73497322  *
   102       H         -6.20262989  *  -7.63742299  *  -2.34525961  *
   103       H         -4.89152378  *  -9.90885520  *  -1.03669858  *
   104       C          3.02742739  *   5.82130383  *  -0.38340348  *
   105       B          4.63100939  *   5.91221696  *  -1.10474339  *
   106       B          3.21261927  *   6.54301907  *  -2.03425492  *
   107       B          4.37454546  *   6.27389381  *   0.68200519  *
   108       B          2.05276924  *   7.20671889  *  -0.80698260  *
   109       B          2.78347827  *   7.10009117  *   0.86115095  *
   110       B          2.83591358  *   8.63656177  *  -0.03408268  *
   111       B          4.29408687  *   8.05889839  *   0.87232713  *
   112       B          3.10693555  *   8.30045298  *  -1.78918799  *
   113       B          5.43915697  *   7.30378191  *  -0.31281111  *
   114       B          4.72074076  *   7.49349804  *  -1.96483724  *
   115       C          4.46196354  *   8.72624854  *  -0.73909616  *
   116       H          5.23103301  *   4.92274105  *  -1.47345905  *
   117       H          2.81112400  *   5.98027999  *  -3.03280550  *
   118       H          4.78814575  *   5.52510570  *   1.54502162  *
   119       H          0.85035026  *   7.13610110  *  -0.97836711  *
   120       H          2.09186733  *   6.92072762  *   1.84362015  *
   121       H          2.22601044  *   9.62802624  *   0.31514980  *
   122       H          4.70221911  *   8.64160349  *   1.85746996  *
   123       H          2.67946333  *   9.05986162  *  -2.63579193  *
   124       H          6.64056667  *   7.36530805  *  -0.14629705  *
   125       H          5.42869110  *   7.68382757  *  -2.93264375  *
   126       H          4.95037818  *   9.71045055  *  -0.86058448  *
   127       C         11.04086093  * -13.20331067  *  -0.94567228  *
   128       B          9.23310526  * -13.32982658  *  -0.99875472  *
   129       B         10.29479477  * -13.58671581  *  -2.46935260  *
   130       B         10.14898809  * -13.96959875  *   0.39702821  *
   131       B         11.79732539  * -14.50037293  *  -2.02798586  *
   132       B         11.73725490  * -14.65157805  *  -0.23587818  *
   133       B         11.33159611  * -16.05365052  *  -1.30526433  *
   134       B         10.36364779  * -15.72411120  *   0.18800266  *
   135       B         10.43078505  * -15.37784459  *  -2.72587472  *
   136       B          8.81909259  * -14.93753615  *  -0.33168505  *
   137       B          8.88683283  * -14.66084685  *  -2.11977855  *
   138       C          9.57990658  * -16.11797877  *  -1.36801934  *
   139       H          8.52912854  * -12.34663685  *  -0.89065697  *
   140       H         10.29414955  * -12.79820848  *  -3.39325268  *
   141       H         10.07173144  * -13.43813936  *   1.48629463  *
   142       H         12.84503557  * -14.30578257  *  -2.60505533  *
   143       H         12.75745301  * -14.60614781  *   0.42255047  *
   144       H         12.01507777  * -17.05168407  *  -1.38773847  *
   145       H         10.38763195  * -16.50167100  *   1.12068943  *
   146       H         10.47304550  * -15.89706715  *  -3.82216471  *
   147       H          7.77312037  * -15.16718214  *   0.23919452  *
   148       H          7.88723209  * -14.69991898  *  -2.80768507  *
   149       H          9.08667807  * -17.09595097  *  -1.50651191  *
   150       C         17.78661441  *  -2.44841909  *  -3.74708477  *
   151       B         18.12719622  *  -2.67597045  *  -5.47998553  *
   152       B         16.87093561  *  -1.49550405  *  -4.97211388  *
   153       B         19.46676910  *  -2.66032249  *  -4.22524416  *
   154       B         17.42608481  *  -0.78129340  *  -3.38343208  *
   155       B         19.06469895  *  -1.44565517  *  -2.95298431  *
   156       B         18.93570460  *   0.15662060  *  -3.70975511  *
   157       B         20.21002837  *  -1.01665431  *  -4.24925880  *
   158       B         17.59958274  *   0.12898817  *  -4.93136748  *
   159       B         19.65084569  *  -1.79351693  *  -5.78556044  *
   160       B         18.06322496  *  -1.04454433  *  -6.23054658  *
   161       C         19.28969010  *  -0.08915757  *  -5.42282844  *
   162       H         17.82226629  *  -3.69158799  *  -6.07181599  *
   163       H         15.69479507  *  -1.70044166  *  -5.19420267  *
   164       H         20.09659710  *  -3.66387934  *  -3.95487654  *
   165       H         16.63008959  *  -0.45926445  *  -2.52389747  *
   166       H         19.39017888  *  -1.61948755  *  -1.79482715  *
   167       H         19.22217885  *   1.18654534  *  -3.13341824  *
   168       H         21.39168436  *  -0.81186215  *  -4.04815350  *
   169       H         16.97573192  *   1.13897815  *  -5.18584117  *
   170       H         20.44935441  *  -2.11964322  *  -6.64053676  *
   171       H         17.76165653  *  -0.85463178  *  -7.39312367  *
   172       H         19.80089294  *   0.71283776  *  -5.99013517  *

                             CARTESIAN COORDINATES

   1    C       -0.600989093    -1.349659055     0.122167670
   2    C       -1.296820437    -0.116052852     0.087770091
   3    C       -0.604396842     1.075182310     0.114296932
   4    C        0.811081038     1.070581629     0.165254453
   5    C        1.521742057    -0.156885813     0.254864350
   6    C        0.804485072    -1.350579202     0.242235942
   7    C       -1.286047073    -2.531920739    -0.014133988
   8    C       -1.907562728    -3.616890898    -0.178815270
   9    C       -2.526900666    -4.714227013    -0.354436568
  10    C        1.450380374     2.281067102     0.086469348
  11    C        1.978780400     3.429991136    -0.067568046
  12    C        2.471858268     4.578910863    -0.222711283
  13    C        2.925734390    -0.160899795     0.249352984
  14    C        4.138094858    -0.148782868     0.138929863
  15    C        5.490144349    -0.075545122    -0.251643549
  16    C        5.883937300     1.088406267    -0.930727333
  17    C        7.113295343     1.130127361    -1.573522471
  18    C        7.907895389    -0.014003851    -1.603078544
  19    C        7.535410339    -1.185944255    -0.932462864
  20    C        6.371936519    -1.160313734    -0.155712505
  21    S        9.419590379     0.045768379    -2.499804821
  22    C       10.382194985    -1.105747717    -1.568568074
  23    C        9.788870474    -2.215650058    -0.950398647
  24    C        8.330986487    -2.419078858    -1.080469261
  25    C       11.755058200    -0.877490751    -1.518318469
  26    C       12.588675896    -1.841455654    -0.966255201
  27    C       12.025618193    -3.005238906    -0.424761251
  28    C       10.632844269    -3.131528883    -0.311141014
  29    C        7.783246033    -3.610067376    -1.396652464
[...]
   4.56031   4.57656   4.58335   4.61095   4.61479   4.64027   4.65156   4.68162
   4.71293   4.75138   4.77808   4.78683   4.80083   4.81517   4.83287   4.86896
   4.89888   4.91467   4.92140   4.94305   4.99908   5.03850   5.04391   5.06664
   5.06845   5.07655   5.09269   5.10358   5.11463   5.13491   5.14886   5.15075
   5.16799   5.19276   5.21259   5.22208   5.23085   5.23506   5.24967   5.25647
   5.28212   5.31853   5.33544   5.37419   5.41130   5.42617   5.43474   5.43801
   5.44299   5.45018   5.52883   5.55799   5.60431   5.62811   5.62870   5.64976
   5.65687   5.70621   5.73823   5.74226   5.75021   5.77940   5.78072   5.81652
   5.83203   5.86176   5.87063   5.89838   5.89848   5.89993   5.91510   5.95903
   5.96530   6.01804   6.05031   6.05562   6.06392   6.08728   6.11098   6.11485
   6.16869   6.22410   6.26114   6.26201   6.28314   6.28323   6.30324   6.31027
   6.81863


              NET ATOMIC CHARGES AND DIPOLE CONTRIBUTIONS

  ATOM NO.   TYPE          CHARGE      No. of ELECS.   s-Pop       p-Pop       d-Pop       
    1          C          -0.104032        4.1040     1.02904     3.07499
    2          C           0.008641        3.9914     1.10161     2.88975
    3          C          -0.258515        4.2585     1.07186     3.18665
    4          C           0.132519        3.8675     1.05507     2.81242
    5          C          -0.061817        4.0618     1.02741     3.03441
    6          C           0.013125        3.9869     1.10498     2.88190
    7          C           0.005035        3.9950     1.08826     2.90671
    8          C          -0.014687        4.0147     1.04568     2.96901
    9          C          -0.100334        4.1003     1.07067     3.02966
   10          C           0.066310        3.9337     1.10708     2.82661
   11          C          -0.029188        4.0292     1.04539     2.98379
   12          C           0.006556        3.9934     1.08277     2.91067
   13          C          -0.117851        4.1179     1.07872     3.03913
   14          C          -0.033408        4.0334     1.09627     2.93714
   15          C          -0.008003        4.0080     1.04055     2.96745
   16          C          -0.122187        4.1222     1.08499     3.03720
   17          C          -0.149888        4.1499     1.08110     3.06879
   18          C          -0.094593        4.0946     1.09058     3.00401
   19          C           0.008865        3.9911     1.06182     2.92931
   20          C          -0.117081        4.1171     1.08890     3.02818
   21          S           0.092371        5.9076     1.88491     3.90365     0.11907
   22          C          -0.091489        4.0915     1.08961     3.00188
   23          C           0.004191        3.9958     1.06311     2.93270
   24          C          -0.093730        4.0937     1.05343     3.04030
   25          C          -0.148055        4.1481     1.08108     3.06698
   26          C          -0.124869        4.1249     1.08458     3.04029
   27          C           0.010757        3.9892     1.04072     2.94852
   28          C          -0.119422        4.1194     1.09016     3.02926
   29          C           0.044422        3.9556     1.09273     2.86285
   30          C          -0.081046        4.0810     1.06614     3.01491
   31          C          -0.289678        4.2897     1.06633     3.22335
   32          C           0.025878        3.9741     1.07793     2.89619
   33          C          -0.099239        4.0992     1.07077     3.02847
   34          C          -0.186875        4.1869     1.07949     3.10739
   35          C          -0.114803        4.1148     1.08993     3.02487
   36          C          -0.032143        4.0321     1.06193     2.97022
   37          C           0.014559        3.9854     1.06084     2.92460
   38          C          -0.151966        4.1520     1.08636     3.06561
   39          C          -0.155426        4.1554     1.08284     3.07259
   40          C          -0.136826        4.1368     1.08383     3.05300
   41          C          -0.157275        4.1573     1.08613     3.07114
   42          C          -0.458634        4.4586     1.05364     3.40499
   43          C          -0.027424        4.0274     1.09550     2.93192
   44          C          -0.115989        4.1160     1.07784     3.03815
   45          C          -0.053023        4.0530     1.02803     3.02499
   46          C           0.131319        3.8687     1.05456     2.81412
   47          C          -0.259178        4.2592     1.07183     3.18735
   48          C           0.002974        3.9970     1.10143     2.89560
   49          C          -0.107818        4.1078     1.02896     3.07886
   50          C           0.023749        3.9763     1.10692     2.86933
   51          C           0.003545        3.9965     1.09028     2.90618
   52          C          -0.016967        4.0170     1.04617     2.97080
   53          C          -0.103586        4.1036     1.07182     3.03176
   54          C           0.071142        3.9289     1.10885     2.82001
   55          C          -0.027390        4.0274     1.04583     2.98156
   56          C           0.003193        3.9968     1.08311     2.91370
   57          H           0.169715        0.8303     0.83028
   58          H           0.172945        0.8271     0.82706
   59          H           0.176612        0.8234     0.82339
   60          H           0.162020        0.8380     0.83798
   61          H           0.170469        0.8295     0.82953
   62          H           0.174278        0.8257     0.82572
   63          H           0.167792        0.8322     0.83221
   64          H           0.164024        0.8360     0.83598
   65          H           0.178949        0.8211     0.82105
   66          H           0.159275        0.8407     0.84073
   67          H           0.155802        0.8442     0.84420
   68          H           0.159238        0.8408     0.84076
   69          H           0.162719        0.8373     0.83728
   70          H           0.167790        0.8322     0.83221
   71          H           0.161187        0.8388     0.83881
   72          H           0.149198        0.8508     0.85080
   73          H           0.153181        0.8468     0.84682
   74          H           0.166600        0.8334     0.83340
   75          H           0.152335        0.8477     0.84767
   76          H           0.152142        0.8479     0.84786
   77          H           0.161204        0.8388     0.83880
   78          H           0.171028        0.8290     0.82897
   79          H           0.168536        0.8315     0.83146
   80          H           0.181405        0.8186     0.81860
   81          C           0.059193        3.9408     1.04914     2.89167
   82          B          -0.190496        3.1905     0.57336     2.61714
   83          B          -0.219132        3.2191     0.56403     2.65510
   84          B          -0.225152        3.2252     0.56242     2.66273
   85          B          -0.211659        3.2117     0.56800     2.64366
   86          B          -0.203770        3.2038     0.57092     2.63285
   87          B          -0.171574        3.1716     0.57459     2.59698
   88          B          -0.179876        3.1799     0.57306     2.60682
   89          B          -0.180605        3.1806     0.57293     2.60767
   90          B          -0.176374        3.1764     0.57368     2.60269
   91          B          -0.174526        3.1745     0.57395     2.60058
   92          C          -0.160264        4.1603     1.08998     3.07028
   93          H           0.172604        0.8274     0.82740
   94          H           0.170719        0.8293     0.82928
   95          H           0.170513        0.8295     0.82949
   96          H           0.169876        0.8301     0.83012
   97          H           0.170128        0.8299     0.82987
   98          H           0.167057        0.8329     0.83294
   99          H           0.168611        0.8314     0.83139
  100          H           0.168685        0.8313     0.83132
  101          H           0.167591        0.8324     0.83241
  102          H           0.167183        0.8328     0.83282
  103          H           0.204732        0.7953     0.79527
  104          C          -0.020635        4.0206     1.05136     2.96928
  105          B          -0.171241        3.1712     0.57217     2.59907
  106          B          -0.175649        3.1756     0.57410     2.60155
  107          B          -0.173435        3.1734     0.57285     2.60058
  108          B          -0.184159        3.1842     0.56890     2.61526
  109          B          -0.176189        3.1762     0.57350     2.60268
  110          B          -0.168421        3.1684     0.57347     2.59495
  111          B          -0.165361        3.1654     0.57416     2.59120
  112          B          -0.168566        3.1686     0.57359     2.59498
  113          B          -0.172925        3.1729     0.57308     2.59985
  114          B          -0.168521        3.1685     0.57393     2.59459
  115          C          -0.178481        4.1785     1.09195     3.08653
  116          H           0.171560        0.8284     0.82844
  117          H           0.174247        0.8258     0.82575
  118          H           0.176619        0.8234     0.82338
  119          H           0.171416        0.8286     0.82858
  120          H           0.174327        0.8257     0.82567
  121          H           0.171922        0.8281     0.82808
  122          H           0.171354        0.8286     0.82865
  123          H           0.171471        0.8285     0.82853
  124          H           0.170646        0.8294     0.82935
  125          H           0.168979        0.8310     0.83102
  126          H           0.211315        0.7887     0.78868
  127          C           0.055500        3.9445     1.04933     2.89517
  128          B          -0.193461        3.1935     0.57196     2.62150
  129          B          -0.225050        3.2251     0.56329     2.66176
  130          B          -0.207130        3.2071     0.56831     2.63882
  131          B          -0.202178        3.2022     0.57312     2.62905
  132          B          -0.224106        3.2241     0.56431     2.65980
  133          B          -0.173013        3.1730     0.57461     2.59840
  134          B          -0.182332        3.1823     0.57266     2.60967
  135          B          -0.177957        3.1780     0.57379     2.60417
  136          B          -0.174676        3.1747     0.57434     2.60033
  137          B          -0.182244        3.1822     0.57300     2.60925
  138          C          -0.159763        4.1598     1.08997     3.06980
  139          H           0.174145        0.8259     0.82586
  140          H           0.170847        0.8292     0.82915
  141          H           0.172372        0.8276     0.82763
  142          H           0.169417        0.8306     0.83058
  143          H           0.170344        0.8297     0.82966
  144          H           0.168003        0.8320     0.83200
  145          H           0.170062        0.8299     0.82994
  146          H           0.168770        0.8312     0.83123
  147          H           0.167644        0.8324     0.83236
  148          H           0.169572        0.8304     0.83043
  149          H           0.205528        0.7945     0.79447
  150          C          -0.017645        4.0176     1.05154     2.96610
  151          B          -0.183730        3.1837     0.57139     2.61234
  152          B          -0.173638        3.1736     0.57436     2.59927
  153          B          -0.184191        3.1842     0.57002     2.61417
  154          B          -0.178942        3.1789     0.56998     2.60896
  155          B          -0.175703        3.1757     0.57387     2.60184
  156          B          -0.169353        3.1694     0.57386     2.59549
  157          B          -0.164824        3.1648     0.57410     2.59072
  158          B          -0.172362        3.1724     0.57342     2.59894
  159          B          -0.168789        3.1688     0.57361     2.59518
  160          B          -0.167021        3.1670     0.57391     2.59311
  161          C          -0.176841        4.1768     1.09208     3.08476
  162          H           0.172132        0.8279     0.82787
  163          H           0.176272        0.8237     0.82373
  164          H           0.171821        0.8282     0.82818
  165          H           0.172841        0.8272     0.82716
  166          H           0.176234        0.8238     0.82377
  167          H           0.170530        0.8295     0.82947
  168          H           0.171636        0.8284     0.82836
  169          H           0.169448        0.8306     0.83055
  170          H           0.171962        0.8280     0.82804
  171          H           0.171347        0.8287     0.82865
  172          H           0.211625        0.7884     0.78837
 DIPOLE           X         Y         Z       TOTAL
 POINT-CHG.     7.280    13.416    -2.238    15.427
 HYBRID         0.193     0.080     0.791     0.819
 SUM            7.473    13.496    -1.446    15.495


          ATOMIC ORBITAL ELECTRON POPULATIONS

     Atom    s        px        py        pz      x^2-y^2     xz        z^2       yz        xy
    1  C   1.02904   0.97319   0.96285   1.13895
    2  C   1.10161   1.08099   0.96580   0.84296
    3  C   1.07186   0.97319   1.08359   1.12987
    4  C   1.05507   0.97858   0.94382   0.89001
    5  C   1.02741   0.94965   0.95934   1.12542
    6  C   1.10498   0.99442   1.04848   0.83900
    7  C   1.08826   1.25848   1.05978   0.58844
    8  C   1.04568   0.91539   0.94186   1.11175
    9  C   1.07067   1.35562   1.06587   0.60818
   10  C   1.10708   0.55261   0.87350   1.40049
   11  C   1.04539   1.10415   0.97783   0.90181
   12  C   1.08277   0.61531   0.90352   1.39183
   13  C   1.07872   0.96314   1.04488   1.03111
   14  C   1.09627   0.97112   0.97371   0.99230
   15  C   1.04055   0.94603   0.99798   1.02344
   16  C   1.08499   1.02004   1.03834   0.97882
   17  C   1.08110   0.99793   1.04524   1.02561
   18  C   1.09058   0.99381   0.99996   1.01025
   19  C   1.06182   0.97865   0.96045   0.99022
   20  C   1.08890   0.97904   1.04086   1.00828
   21  S   1.88491   0.99292   1.52579   1.38494   0.02588   0.04091   0.01039   0.01754   0.02435
   22  C   1.08961   0.99389   0.99535   1.01264
   23  C   1.06311   0.96304   0.97312   0.99654
   24  C   1.05343   0.96546   0.97676   1.09807
   25  C   1.08108   0.98452   1.06074   1.02172
   26  C   1.08458   1.08052   0.97807   0.98170
   27  C   1.04072   0.96830   0.96201   1.01821
   28  C   1.09016   0.98067   1.05082   0.99777
   29  C   1.09273   0.98678   0.94984   0.92622
   30  C   1.06614   0.93966   0.99202   1.08323
   31  C   1.06633   1.04078   1.06801   1.11456
   32  C   1.07793   0.96920   0.96598   0.96101
   33  C   1.07077   0.99731   0.98412   1.04704
   34  C   1.07949   1.03787   1.02031   1.04921
   35  C   1.08993   0.98318   1.06569   0.97600
   36  C   1.06193   0.99120   0.97664   1.00238
   37  C   1.06084   0.96585   0.98174   0.97702
   38  C   1.08636   0.99053   1.07502   1.00005
   39  C   1.08284   1.05237   1.00453   1.01568
   40  C   1.08383   1.01626   1.00961   1.02714
   41  C   1.08613   0.99682   1.07862   0.99571
   42  C   1.05364   1.08037   1.14089   1.18373
   43  C   1.09550   0.96570   0.97886   0.98736
   44  C   1.07784   1.02829   0.98190   1.02797
   45  C   1.02803   0.98836   0.97153   1.06510
   46  C   1.05456   0.94339   0.95331   0.91742
   47  C   1.07183   1.10555   0.96193   1.11986
   48  C   1.10143   0.94503   1.05193   0.89864
   49  C   1.02896   1.01086   0.97240   1.09560
   50  C   1.10692   1.00267   0.95556   0.91109
   51  C   1.09028   1.09163   1.02354   0.79101
   52  C   1.04617   0.95490   0.95572   1.06017
   53  C   1.07182   1.20338   0.99658   0.83180
   54  C   1.10885   0.93536   0.76133   1.12332
   55  C   1.04583   0.99774   1.02973   0.95410
   56  C   1.08311   1.01003   0.77332   1.13034
   57  H   0.83028
   58  H   0.82706
   59  H   0.82339
   60  H   0.83798
   61  H   0.82953
   62  H   0.82572
   63  H   0.83221
   64  H   0.83598
   65  H   0.82105
   66  H   0.84073
   67  H   0.84420
   68  H   0.84076
   69  H   0.83728
   70  H   0.83221
   71  H   0.83881
   72  H   0.85080
   73  H   0.84682
   74  H   0.83340
   75  H   0.84767
   76  H   0.84786
   77  H   0.83880
   78  H   0.82897
   79  H   0.83146
   80  H   0.81860
   81  C   1.04914   0.92574   0.95978   1.00616
   82  B   0.57336   0.82471   1.04774   0.74469
   83  B   0.56403   0.73225   0.96442   0.95843
   84  B   0.56242   0.75471   0.85308   1.05494
   85  B   0.56800   1.04973   0.70732   0.88661
   86  B   0.57092   1.03700   0.69487   0.90098
   87  B   0.57459   0.81173   1.04694   0.73831
   88  B   0.57306   0.75010   0.93384   0.92288
   89  B   0.57293   0.74667   0.82319   1.03781
   90  B   0.57368   1.03882   0.75331   0.81056
   91  B   0.57395   1.02487   0.71816   0.85755
   92  C   1.08998   1.00985   1.09892   0.96152
   93  H   0.82740
   94  H   0.82928
   95  H   0.82949
   96  H   0.83012
   97  H   0.82987
   98  H   0.83294
   99  H   0.83139
  100  H   0.83132
  101  H   0.83241
  102  H   0.83282
  103  H   0.79527
  104  C   1.05136   1.02418   0.98798   0.95712
  105  B   0.57217   0.77483   1.06619   0.75806
  106  B   0.57410   0.79282   0.85996   0.94876
  107  B   0.57285   0.77022   0.92326   0.90710
  108  B   0.56890   1.15542   0.68901   0.77083
  109  B   0.57350   0.89888   0.73578   0.96803
  110  B   0.57347   0.76014   1.06247   0.77234
  111  B   0.57416   0.79002   0.84995   0.95123
  112  B   0.57359   0.73022   0.93945   0.92530
  113  B   0.57308   1.15505   0.69055   0.75424
  114  B   0.57393   0.89619   0.72267   0.97573
  115  C   1.09195   0.99902   1.10052   0.98699
  116  H   0.82844
  117  H   0.82575
  118  H   0.82338
  119  H   0.82858
  120  H   0.82567
  121  H   0.82808
  122  H   0.82865
  123  H   0.82853
  124  H   0.82935
  125  H   0.83102
  126  H   0.78868
  127  C   1.04933   0.94396   0.97015   0.98106
  128  B   0.57196   0.79547   1.05945   0.76658
  129  B   0.56329   0.79360   0.94975   0.91841
  130  B   0.56831   0.69467   0.87293   1.07122
  131  B   0.57312   1.06753   0.73015   0.83137
  132  B   0.56431   1.05265   0.68562   0.92153
  133  B   0.57461   0.79316   1.06683   0.73842
  134  B   0.57266   0.73882   0.95254   0.91831
  135  B   0.57379   0.74517   0.81868   1.04031
  136  B   0.57434   1.05289   0.74738   0.80007
  137  B   0.57300   1.03909   0.69207   0.87808
  138  C   1.08997   1.01004   1.09160   0.96815
  139  H   0.82586
  140  H   0.82915
  141  H   0.82763
  142  H   0.83058
  143  H   0.82966
  144  H   0.83200
  145  H   0.82994
  146  H   0.83123
  147  H   0.83236
  148  H   0.83043
  149  H   0.79447
  150  C   1.05154   0.98645   1.00496   0.97470
  151  B   0.57139   0.80969   1.07997   0.72268
  152  B   0.57436   1.15053   0.76698   0.68177
  153  B   0.57002   0.73921   1.07215   0.80281
  154  B   0.56998   0.95557   0.66850   0.98489
  155  B   0.57387   0.70918   0.74683   1.14583
  156  B   0.57386   0.76097   1.08157   0.75295
  157  B   0.57410   1.14127   0.72861   0.72085
  158  B   0.57342   0.76772   1.07202   0.75921
  159  B   0.57361   0.94529   0.67789   0.97200
  160  B   0.57391   0.72692   0.73110   1.13509
  161  C   1.09208   1.00964   1.05446   1.02066
  162  H   0.82787
  163  H   0.82373
  164  H   0.82818
  165  H   0.82716
  166  H   0.82377
  167  H   0.82947
  168  H   0.82836
  169  H   0.83055
  170  H   0.82804
  171  H   0.82865
  172  H   0.78837

 **********************
 *                    *
 * JOB ENDED NORMALLY *
 *                    *
 **********************



 TOTAL JOB TIME:             8.09 SECONDS

 == MOPAC DONE ==
