 *******************************************************************************
 ** Site#: 9602  E-mail support: MrMOPAC@OpenMOPAC.net  Version 16.035L 64BITS**
 *******************************************************************************
 ** Cite this program as: MOPAC2016, Version: 16.035L, James J. P. Stewart,   **
 ** Stewart Computational Chemistry, web-site: HTTP://OpenMOPAC.net.          **
 *******************************************************************************
 **                                                                           **
 **                                MOPAC2016                                  **
 **                                                                           **
 *******************************************************************************

                              PM7 CALCULATION RESULTS


 *******************************************************************************
 *  CALCULATION DONE:                                Fri Apr 28 02:46:32 2017  *
 *  PM7        - The PM7 Hamiltonian to be used
 *
 *
 *
 *                 CHARGE ON SYSTEM = 0
 *
 *
 *
 *  BFGS       - USE THE BFGS GEOMETRY OPTIMIZER
 *  T=         - A TIME OF 172800.0 SECONDS REQUESTED
 *  DUMP=N     - RESTART FILE WRITTEN EVERY  7200.000 SECONDS
 *******************************************************************************
PM7 BFGS CHARGE=0
 Carborane-B

   ATOM   CHEMICAL          X               Y               Z
  NUMBER   SYMBOL      (ANGSTROMS)     (ANGSTROMS)     (ANGSTROMS)
 
     1       C         -0.36691000  *  -1.73896000  *  -0.07184000  *
     2       C         -1.16032000  *  -0.51984000  *   0.01656000  *
     3       C         -0.60213000  *   0.69524000  *  -0.22818000  *
     4       C          0.79568000  *   0.83418000  *  -0.59702000  *
     5       C          1.58987000  *  -0.39999000  *  -0.74604000  *
     6       C          1.01228000  *  -1.61979000  *  -0.48643000  *
     7       C         -0.90041000  *  -2.93488000  *   0.26704000  *
     8       C         -1.41573000  *  -4.08504000  *   0.61898000  *
     9       C         -1.91538000  *  -5.18841000  *   0.95399000  *
    10       C          1.37045000  *   2.03969000  *  -0.75508000  *
    11       C          2.15614000  *   3.06816000  *  -1.00819000  *
    12       C          2.90230000  *   4.06000000  *  -1.27367000  *
    13       C          2.94282000  *  -0.28006000  *  -1.11205000  *
    14       C          4.09895000  *  -0.12263000  *  -1.42782000  *
    15       C          5.45354000  *   0.13115000  *  -1.77495000  *
    16       C          5.94336000  *   1.45949000  *  -1.81631000  *
    17       C          7.29373000  *   1.70212000  *  -2.04038000  *
    18       C          8.16635000  *   0.63511000  *  -2.29690000  *
    19       C          7.66954000  *  -0.68222000  *  -2.42222000  *
    20       C          6.33659000  *  -0.92570000  *  -2.06697000  *
    21       S          9.91622000  *   0.92807000  *  -2.37680000  *
    22       C         10.49575000  *  -0.59876000  *  -1.66714000  *
    23       C          9.78570000  *  -1.79319000  *  -1.89077000  *
    24       C          8.61083000  *  -1.77087000  *  -2.79196000  *
    25       C         11.68495000  *  -0.61397000  *  -0.92460000  *
    26       C         12.18975000  *  -1.81409000  *  -0.44028000  *
    27       C         11.47240000  *  -3.01455000  *  -0.64025000  *
    28       C         10.23878000  *  -2.96537000  *  -1.30034000  *
    29       C          8.46176000  *  -2.64683000  *  -3.82522000  *
    30       C          7.31918000  *  -2.82215000  *  -4.84593000  *
    31       C          7.01922000  *  -4.32104000  *  -4.66700000  *
    32       C          8.39635000  *  -4.89885000  *  -4.41859000  *
    33       C          9.28913000  *  -3.87083000  *  -4.06212000  *
    34       C          8.82933000  *  -6.24526000  *  -4.52337000  *
    35       C         10.17384000  *  -6.53331000  *  -4.32450000  *
    36       C         11.13859000  *  -5.49020000  *  -4.10716000  *
    37       C         10.70414000  *  -4.11707000  *  -4.01076000  *
    38       C         12.53604000  *  -5.77719000  *  -4.01591000  *
    39       C         13.47168000  *  -4.75408000  *  -3.90605000  *
    40       C         13.03674000  *  -3.40023000  *  -3.89993000  *
    41       C         11.68806000  *  -3.08802000  *  -3.94567000  *
    42       C          6.09497000  *  -1.91278000  *  -4.94240000  *
    43       C         12.02796000  *  -4.29369000  *  -0.38103000  *
    44       C         12.50045000  *  -5.41332000  *  -0.38682000  *
    45       C         13.01377000  *  -6.73124000  *  -0.49994000  *
    46       C         14.44574000  *  -6.92013000  *  -0.77994000  *
    47       C         14.94278000  *  -8.27916000  *  -0.89527000  *
    48       C         14.11337000  *  -9.34950000  *  -0.82913000  *
    49       C         12.68485000  *  -9.17351000  *  -0.63393000  *
    50       C         12.18792000  *  -7.82972000  *  -0.43606000  *
    51       C         11.85735000  * -10.23883000  *  -0.69090000  *
    52       C         11.18291000  * -11.35232000  *  -0.84793000  *
    53       C         10.50475000  * -12.40298000  *  -1.01356000  *
    54       C         15.24853000  *  -5.86498000  *  -0.97073000  *
    55       C         15.78430000  *  -4.70399000  *  -1.17792000  *
    56       C         16.23312000  *  -3.58564000  *  -1.41663000  *
    57       H         -2.21328000  *  -0.60642000  *   0.32240000  *
    58       H         -1.19675000  *   1.60765000  *  -0.13509000  *
    59       H          1.61200000  *  -2.52780000  *  -0.58573000  *
    60       H          5.26554000  *   2.28772000  *  -1.60769000  *
    61       H          7.67904000  *   2.72492000  *  -1.97816000  *
    62       H          5.97671000  *  -1.95685000  *  -2.02423000  *
    63       H         12.22508000  *   0.32622000  *  -0.72251000  *
    64       H         13.15179000  *  -1.84224000  *   0.06312000  *
    65       H          9.68127000  *  -3.89237000  *  -1.44913000  *
    66       H          7.83885000  *  -2.74636000  *  -5.81199000  *
    67       H          6.52133000  *  -4.76037000  *  -5.52789000  *
    68       H          6.35995000  *  -4.45762000  *  -3.80836000  *
    69       H          8.10946000  *  -7.04380000  *  -4.75510000  *
    70       H         10.52568000  *  -7.57211000  *  -4.38762000  *
    71       H         12.85986000  *  -6.82297000  *  -4.04842000  *
    72       H         14.53949000  *  -4.98330000  *  -3.83286000  *
    73       H         13.77957000  *  -2.60281000  *  -3.83093000  *
    74       H         11.35974000  *  -2.04713000  *  -3.94426000  *
    75       H          5.38014000  *  -2.03936000  *  -4.11293000  *
    76       H          5.54850000  *  -2.15373000  *  -5.87153000  *
    77       H          6.38582000  *  -0.85935000  *  -4.99421000  *
    78       H         16.00809000  *  -8.41749000  *  -1.07458000  *
    79       H         14.49979000  * -10.36493000  *  -0.94941000  *
    80       H         11.11708000  *  -7.68620000  *  -0.25586000  *
    81       C         -2.34306000  *  -6.50493000  *   1.30005000  *
    82       B         -3.87828000  *  -6.72153000  *   2.06764000  *
    83       B         -3.60603000  *  -7.23562000  *   0.37587000  *
    84       B         -2.35600000  *  -6.96370000  *   2.97038000  *
    85       B         -1.91927000  *  -7.80529000  *   0.23697000  *
    86       B         -1.14594000  *  -7.63476000  *   1.84361000  *
    87       B         -1.72481000  *  -9.21339000  *   1.28731000  *
    88       B         -1.99198000  *  -8.69625000  *   2.97011000  *
    89       B         -3.23691000  *  -8.96752000  *   0.38529000  *
    90       B         -3.67248000  *  -8.13802000  *   3.10708000  *
    91       B         -4.43971000  *  -8.30597000  *   1.50923000  *
    92       C         -3.23848000  *  -9.39093000  *   2.03933000  *
    93       H         -4.55550000  *  -5.76780000  *   2.29667000  *
    94       H         -4.10501000  *  -6.62546000  *  -0.51709000  *
    95       H         -2.01793000  *  -6.16980000  *   3.79556000  *
    96       H         -1.29442000  *  -7.57072000  *  -0.74677000  *
    97       H         -0.01481000  *  -7.27991000  *   1.93399000  *
    98       H         -1.04142000  * -10.16299000  *   1.05329000  *
    99       H         -1.49069000  *  -9.29926000  *   3.86669000  *
   100       H         -3.57411000  *  -9.75374000  *  -0.44833000  *
   101       H         -4.29587000  *  -8.37447000  *   4.09369000  *
   102       H         -5.57185000  *  -8.65939000  *   1.41184000  *
   103       H         -3.55916000  * -10.40307000  *   2.30340000  *
   104       C          3.65558000  *   5.23588000  *  -1.54075000  *
   105       B          4.88349000  *   5.19144000  *  -2.75920000  *
   106       B          3.34852000  *   6.09338000  *  -3.00683000  *
   107       B          5.31274000  *   5.29563000  *  -1.02667000  *
   108       B          2.83107000  *   6.76666000  *  -1.43181000  *
   109       B          4.04103000  *   6.26031000  *  -0.20833000  *
   110       B          4.06454000  *   7.89274000  *  -0.88552000  *
   111       B          5.58822000  *   6.98996000  *  -0.63411000  *
   112       B          3.63684000  *   7.78897000  *  -2.61013000  *
   113       B          6.10354000  *   6.32912000  *  -2.20725000  *
   114       B          4.89826000  *   6.82504000  *  -3.42445000  *
   115       C          5.26408000  *   7.81415000  *  -2.08847000  *
   116       H          5.09396000  *   4.18329000  *  -3.35877000  *
   117       H          2.53515000  *   5.67827000  *  -3.76982000  *
   118       H          5.80121000  *   4.36142000  *  -0.46794000  *
   119       H          1.67637000  *   6.79523000  *  -1.13581000  *
   120       H          3.67941000  *   5.95174000  *   0.88240000  *
   121       H          3.85225000  *   8.89937000  *  -0.27903000  *
   122       H          6.40153000  *   7.39638000  *   0.13621000  *
   123       H          3.14426000  *   8.72474000  *  -3.16563000  *
   124       H          7.25923000  *   6.27858000  *  -2.50306000  *
   125       H          5.25970000  *   7.13243000  *  -4.51651000  *
   126       H          5.83005000  *   8.71783000  *  -2.28541000  *
   127       C          9.90686000  * -13.67295000  *  -1.25215000  *
   128       B          8.29057000  * -13.75499000  *  -1.86418000  *
   129       B          9.69369000  * -14.17845000  *  -2.89123000  *
   130       B          8.66745000  * -14.24341000  *  -0.18669000  *
   131       B         10.93521000  * -14.93675000  *  -1.85584000  *
   132       B         10.30220000  * -14.97171000  *  -0.18134000  *
   133       B         10.26054000  * -16.42614000  *  -1.18625000  *
   134       B          8.86874000  * -15.99986000  *  -0.16240000  *
   135       B          9.88520000  * -15.93723000  *  -2.85629000  *
   136       B          7.63233000  * -15.25798000  *  -1.19810000  *
   137       B          8.26037000  * -15.21232000  *  -2.86253000  *
   138       C          8.67036000  * -16.47044000  *  -1.78923000  *
   139       H          7.69066000  * -12.74858000  *  -2.07021000  *
   140       H         10.02816000  * -13.44762000  *  -3.77202000  *
   141       H          8.31204000  * -13.56270000  *   0.72234000  *
   142       H         12.08575000  * -14.69999000  *  -2.05935000  *
   143       H         11.03772000  * -14.77188000  *   0.73199000  *
   144       H         10.86666000  * -17.43023000  *  -0.97277000  *
   145       H          8.53866000  * -16.72426000  *   0.72579000  *
   146       H         10.23975000  * -16.61323000  *  -3.76981000  *
   147       H          6.48155000  * -15.49492000  *  -0.99180000  *
   148       H          7.52672000  * -15.41169000  *  -3.77980000  *
   149       H          8.23054000  * -17.45176000  *  -1.98266000  *
   150       C         16.71647000  *  -2.27182000  *  -1.64461000  *
   151       B         16.72903000  *  -1.67674000  *  -3.26652000  *
   152       B         15.57672000  *  -1.04229000  *  -2.06174000  *
   153       B         18.25480000  *  -2.07422000  *  -2.41630000  *
   154       B         16.38179000  *  -1.05550000  *  -0.46338000  *
   155       B         18.03950000  *  -1.69636000  *  -0.68245000  *
   156       B         17.76710000  *   0.03670000  *  -0.53121000  *
   157       B         18.91495000  *  -0.58323000  *  -1.73383000  *
   158       B         16.25234000  *   0.44029000  *  -1.38205000  *
   159       B         18.11009000  *  -0.57411000  *  -3.32495000  *
   160       B         16.46205000  *   0.05854000  *  -3.10719000  *
   161       C         17.76507000  *   0.59840000  *  -2.14388000  *
   162       H         16.33580000  *  -2.37304000  *  -4.15329000  *
   163       H         14.42313000  *  -1.32294000  *  -2.15457000  *
   164       H         18.87434000  *  -3.04073000  *  -2.74383000  *
   165       H         15.75562000  *  -1.33973000  *   0.51093000  *
   166       H         18.52113000  *  -2.40675000  *   0.14493000  *
   167       H         18.16256000  *   0.72497000  *   0.36130000  *
   168       H         20.07241000  *  -0.30183000  *  -1.63180000  *
   169       H         15.62126000  *   1.39926000  *  -1.04733000  *
   170       H         18.73105000  *  -0.28830000  *  -4.30367000  *
   171       H         15.97562000  *   0.76474000  *  -3.93720000  *
   172       H         18.13704000  *   1.60421000  *  -2.32396000  *
 


          CARTESIAN COORDINATES 

    NO.       ATOM         X         Y         Z

     1         C       -0.3669   -1.7390   -0.0718
     2         C       -1.1603   -0.5198    0.0166
     3         C       -0.6021    0.6952   -0.2282
     4         C        0.7957    0.8342   -0.5970
     5         C        1.5899   -0.4000   -0.7460
     6         C        1.0123   -1.6198   -0.4864
     7         C       -0.9004   -2.9349    0.2670
     8         C       -1.4157   -4.0850    0.6190
     9         C       -1.9154   -5.1884    0.9540
    10         C        1.3704    2.0397   -0.7551
    11         C        2.1561    3.0682   -1.0082
    12         C        2.9023    4.0600   -1.2737
    13         C        2.9428   -0.2801   -1.1120
    14         C        4.0990   -0.1226   -1.4278
    15         C        5.4535    0.1311   -1.7750
    16         C        5.9434    1.4595   -1.8163
    17         C        7.2937    1.7021   -2.0404
    18         C        8.1663    0.6351   -2.2969
    19         C        7.6695   -0.6822   -2.4222
    20         C        6.3366   -0.9257   -2.0670
    21         S        9.9162    0.9281   -2.3768
    22         C       10.4957   -0.5988   -1.6671
    23         C        9.7857   -1.7932   -1.8908
    24         C        8.6108   -1.7709   -2.7920
    25         C       11.6850   -0.6140   -0.9246
    26         C       12.1898   -1.8141   -0.4403
    27         C       11.4724   -3.0145   -0.6403
    28         C       10.2388   -2.9654   -1.3003
    29         C        8.4618   -2.6468   -3.8252
    30         C        7.3192   -2.8222   -4.8459
    31         C        7.0192   -4.3210   -4.6670
    32         C        8.3963   -4.8989   -4.4186
    33         C        9.2891   -3.8708   -4.0621
    34         C        8.8293   -6.2453   -4.5234
    35         C       10.1738   -6.5333   -4.3245
    36         C       11.1386   -5.4902   -4.1072
    37         C       10.7041   -4.1171   -4.0108
    38         C       12.5360   -5.7772   -4.0159
    39         C       13.4717   -4.7541   -3.9061
    40         C       13.0367   -3.4002   -3.8999
    41         C       11.6881   -3.0880   -3.9457
    42         C        6.0950   -1.9128   -4.9424
    43         C       12.0280   -4.2937   -0.3810
    44         C       12.5005   -5.4133   -0.3868
    45         C       13.0138   -6.7312   -0.4999
    46         C       14.4457   -6.9201   -0.7799
    47         C       14.9428   -8.2792   -0.8953
    48         C       14.1134   -9.3495   -0.8291
    49         C       12.6849   -9.1735   -0.6339
    50         C       12.1879   -7.8297   -0.4361
    51         C       11.8574  -10.2388   -0.6909
    52         C       11.1829  -11.3523   -0.8479
    53         C       10.5047  -12.4030   -1.0136
    54         C       15.2485   -5.8650   -0.9707
    55         C       15.7843   -4.7040   -1.1779
    56         C       16.2331   -3.5856   -1.4166
    57         H       -2.2133   -0.6064    0.3224
    58         H       -1.1967    1.6077   -0.1351
    59         H        1.6120   -2.5278   -0.5857
    60         H        5.2655    2.2877   -1.6077
    61         H        7.6790    2.7249   -1.9782
    62         H        5.9767   -1.9569   -2.0242
    63         H       12.2251    0.3262   -0.7225
    64         H       13.1518   -1.8422    0.0631
    65         H        9.6813   -3.8924   -1.4491
    66         H        7.8388   -2.7464   -5.8120
    67         H        6.5213   -4.7604   -5.5279
    68         H        6.3600   -4.4576   -3.8084
    69         H        8.1095   -7.0438   -4.7551
    70         H       10.5257   -7.5721   -4.3876
    71         H       12.8599   -6.8230   -4.0484
    72         H       14.5395   -4.9833   -3.8329
    73         H       13.7796   -2.6028   -3.8309
    74         H       11.3597   -2.0471   -3.9443
    75         H        5.3801   -2.0394   -4.1129
    76         H        5.5485   -2.1537   -5.8715
    77         H        6.3858   -0.8594   -4.9942
    78         H       16.0081   -8.4175   -1.0746
    79         H       14.4998  -10.3649   -0.9494
    80         H       11.1171   -7.6862   -0.2559
    81         C       -2.3431   -6.5049    1.3001
    82         B       -3.8783   -6.7215    2.0676
    83         B       -3.6060   -7.2356    0.3759
    84         B       -2.3560   -6.9637    2.9704
    85         B       -1.9193   -7.8053    0.2370
    86         B       -1.1459   -7.6348    1.8436
    87         B       -1.7248   -9.2134    1.2873
    88         B       -1.9920   -8.6962    2.9701
    89         B       -3.2369   -8.9675    0.3853
    90         B       -3.6725   -8.1380    3.1071
    91         B       -4.4397   -8.3060    1.5092
    92         C       -3.2385   -9.3909    2.0393
    93         H       -4.5555   -5.7678    2.2967
    94         H       -4.1050   -6.6255   -0.5171
    95         H       -2.0179   -6.1698    3.7956
    96         H       -1.2944   -7.5707   -0.7468
    97         H       -0.0148   -7.2799    1.9340
    98         H       -1.0414  -10.1630    1.0533
    99         H       -1.4907   -9.2993    3.8667
   100         H       -3.5741   -9.7537   -0.4483
   101         H       -4.2959   -8.3745    4.0937
   102         H       -5.5719   -8.6594    1.4118
   103         H       -3.5592  -10.4031    2.3034
   104         C        3.6556    5.2359   -1.5408
   105         B        4.8835    5.1914   -2.7592
   106         B        3.3485    6.0934   -3.0068
   107         B        5.3127    5.2956   -1.0267
   108         B        2.8311    6.7667   -1.4318
   109         B        4.0410    6.2603   -0.2083
   110         B        4.0645    7.8927   -0.8855
   111         B        5.5882    6.9900   -0.6341
   112         B        3.6368    7.7890   -2.6101
   113         B        6.1035    6.3291   -2.2073
   114         B        4.8983    6.8250   -3.4245
   115         C        5.2641    7.8141   -2.0885
   116         H        5.0940    4.1833   -3.3588
   117         H        2.5351    5.6783   -3.7698
   118         H        5.8012    4.3614   -0.4679
   119         H        1.6764    6.7952   -1.1358
   120         H        3.6794    5.9517    0.8824
   121         H        3.8523    8.8994   -0.2790
   122         H        6.4015    7.3964    0.1362
   123         H        3.1443    8.7247   -3.1656
   124         H        7.2592    6.2786   -2.5031
   125         H        5.2597    7.1324   -4.5165
   126         H        5.8300    8.7178   -2.2854
   127         C        9.9069  -13.6730   -1.2521
   128         B        8.2906  -13.7550   -1.8642
   129         B        9.6937  -14.1784   -2.8912
   130         B        8.6675  -14.2434   -0.1867
   131         B       10.9352  -14.9367   -1.8558
   132         B       10.3022  -14.9717   -0.1813
   133         B       10.2605  -16.4261   -1.1863
   134         B        8.8687  -15.9999   -0.1624
   135         B        9.8852  -15.9372   -2.8563
   136         B        7.6323  -15.2580   -1.1981
   137         B        8.2604  -15.2123   -2.8625
   138         C        8.6704  -16.4704   -1.7892
   139         H        7.6907  -12.7486   -2.0702
   140         H       10.0282  -13.4476   -3.7720
   141         H        8.3120  -13.5627    0.7223
   142         H       12.0858  -14.7000   -2.0593
   143         H       11.0377  -14.7719    0.7320
   144         H       10.8667  -17.4302   -0.9728
   145         H        8.5387  -16.7243    0.7258
   146         H       10.2398  -16.6132   -3.7698
   147         H        6.4816  -15.4949   -0.9918
   148         H        7.5267  -15.4117   -3.7798
   149         H        8.2305  -17.4518   -1.9827
   150         C       16.7165   -2.2718   -1.6446
   151         B       16.7290   -1.6767   -3.2665
   152         B       15.5767   -1.0423   -2.0617
   153         B       18.2548   -2.0742   -2.4163
   154         B       16.3818   -1.0555   -0.4634
   155         B       18.0395   -1.6964   -0.6825
   156         B       17.7671    0.0367   -0.5312
   157         B       18.9150   -0.5832   -1.7338
   158         B       16.2523    0.4403   -1.3821
   159         B       18.1101   -0.5741   -3.3250
   160         B       16.4621    0.0585   -3.1072
   161         C       17.7651    0.5984   -2.1439
   162         H       16.3358   -2.3730   -4.1533
   163         H       14.4231   -1.3229   -2.1546
   164         H       18.8743   -3.0407   -2.7438
   165         H       15.7556   -1.3397    0.5109
   166         H       18.5211   -2.4068    0.1449
   167         H       18.1626    0.7250    0.3613
   168         H       20.0724   -0.3018   -1.6318
   169         H       15.6213    1.3993   -1.0473
   170         H       18.7310   -0.2883   -4.3037
   171         H       15.9756    0.7647   -3.9372
   172         H       18.1370    1.6042   -2.3240

 General Reference for PM7:
 "Optimization of Parameters for Semiempirical Methods VI: More Modifications to the 
 NDDO Approximations and Re-optimization of Parameters", J. J. P. Stewart, J. Mol. Mod., 1:32, 19 (2013)
 http://www.springerlink.com/openurl.asp?genre=article&id=doi:10.1007/s00894-012-1667-x

           Empirical Formula: C63 H68 S B40  =   172 atoms



      MOLECULAR POINT GROUP   :   C1  


      RHF CALCULATION, NO. OF DOUBLY OCCUPIED LEVELS = 223


          Geometry optimization using BFGS
 CYCLE:     1 TIME:   2.038 TIME LEFT:  2.00D  GRAD.:   225.051 HEAT:  502.5069
 CYCLE:     2 TIME:   1.243 TIME LEFT:  2.00D  GRAD.:   168.270 HEAT:  491.3891
 CYCLE:     3 TIME:   1.290 TIME LEFT:  2.00D  GRAD.:   121.019 HEAT:  485.2551
 CYCLE:     4 TIME:   1.300 TIME LEFT:  2.00D  GRAD.:    87.381 HEAT:  481.5777
 CYCLE:     5 TIME:   1.227 TIME LEFT:  2.00D  GRAD.:    70.963 HEAT:  479.5753
 CYCLE:     6 TIME:   1.113 TIME LEFT:  2.00D  GRAD.:    61.808 HEAT:  477.9110
 CYCLE:     7 TIME:   1.145 TIME LEFT:  2.00D  GRAD.:    61.793 HEAT:  476.9154
 CYCLE:     8 TIME:   1.139 TIME LEFT:  2.00D  GRAD.:    59.519 HEAT:  475.4398
 CYCLE:     9 TIME:   1.065 TIME LEFT:  2.00D  GRAD.:    48.946 HEAT:  474.4564
 CYCLE:    10 TIME:   1.047 TIME LEFT:  2.00D  GRAD.:    37.017 HEAT:  473.6718
 CYCLE:    11 TIME:   1.060 TIME LEFT:  2.00D  GRAD.:    33.570 HEAT:  473.1798
 CYCLE:    12 TIME:   0.986 TIME LEFT:  2.00D  GRAD.:    34.011 HEAT:  472.7579
 CYCLE:    13 TIME:   1.020 TIME LEFT:  2.00D  GRAD.:    30.035 HEAT:  472.3078
 CYCLE:    14 TIME:   1.020 TIME LEFT:  2.00D  GRAD.:    26.353 HEAT:  471.9837
 CYCLE:    15 TIME:   0.959 TIME LEFT:  2.00D  GRAD.:    25.747 HEAT:  471.7344
 TEST ON GRADIENT SATISFIED
                    HOWEVER, A COMPONENT OF GRADIENT IS LARGER THAN  1.00

 CYCLE:    16 TIME:   1.006 TIME LEFT:  2.00D  GRAD.:    21.513 HEAT:  471.5483
 TEST ON GRADIENT SATISFIED
                    HOWEVER, A COMPONENT OF GRADIENT IS LARGER THAN  1.00

 CYCLE:    17 TIME:   0.943 TIME LEFT:  2.00D  GRAD.:    20.041 HEAT:  471.3888
 TEST ON GRADIENT SATISFIED
                    HOWEVER, A COMPONENT OF GRADIENT IS LARGER THAN  1.00

 CYCLE:    18 TIME:   0.970 TIME LEFT:  2.00D  GRAD.:    19.630 HEAT:  471.2535
 TEST ON GRADIENT SATISFIED
                    HOWEVER, A COMPONENT OF GRADIENT IS LARGER THAN  1.00

 CYCLE:    19 TIME:   0.934 TIME LEFT:  2.00D  GRAD.:    18.485 HEAT:  471.1456
 TEST ON GRADIENT SATISFIED
                    HOWEVER, A COMPONENT OF GRADIENT IS LARGER THAN  1.00

 CYCLE:    20 TIME:   0.980 TIME LEFT:  2.00D  GRAD.:    16.709 HEAT:  471.0116
 TEST ON GRADIENT SATISFIED
                    HOWEVER, A COMPONENT OF GRADIENT IS LARGER THAN  1.00

 CYCLE:    21 TIME:   0.948 TIME LEFT:  2.00D  GRAD.:    16.087 HEAT:  470.9220
 TEST ON GRADIENT SATISFIED
                    HOWEVER, A COMPONENT OF GRADIENT IS LARGER THAN  1.00

 CYCLE:    22 TIME:   0.944 TIME LEFT:  2.00D  GRAD.:    15.280 HEAT:  470.8339
 TEST ON GRADIENT SATISFIED
                    HOWEVER, A COMPONENT OF GRADIENT IS LARGER THAN  1.00

 CYCLE:    23 TIME:   0.915 TIME LEFT:  2.00D  GRAD.:    16.630 HEAT:  470.7486
 TEST ON GRADIENT SATISFIED
                    HOWEVER, A COMPONENT OF GRADIENT IS LARGER THAN  1.00

           THERE HAVE BEEN 3 ATTEMPTS TO REDUCE THE GRADIENT.
           DURING THESE ATTEMPTS THE ENERGY DROPPED BY LESS THAN 0.3 KCAL/MOLE
           FURTHER CALCULATION IS NOT JUSTIFIED AT THIS TIME.
           TO CONTINUE, START AGAIN WITH THE WORD "PRECISE"

 -------------------------------------------------------------------------------
PM7 BFGS CHARGE=0
 Carborane-B



     GRADIENT TEST NOT PASSED, BUT FURTHER WORK NOT JUSTIFIED 
     SCF FIELD WAS ACHIEVED                                   


                              PM7 CALCULATION
                                                       MOPAC2016 (Version: 16.035L)
                                                       Fri Apr 28 02:47:00 2017
                                                       No. of days remaining = 474




          FINAL HEAT OF FORMATION =        470.64285 KCAL/MOL =    1969.16967 KJ/MOL


          TOTAL ENERGY            =     -11086.96564 EV
          ELECTRONIC ENERGY       =    -186424.94358 EV  POINT GROUP:     C1  
          CORE-CORE REPULSION     =     175337.97794 EV
          COSMO AREA              =       1183.66 SQUARE ANGSTROMS
          COSMO VOLUME            =       1587.85 CUBIC ANGSTROMS

          GRADIENT NORM           =         17.91605
          IONIZATION POTENTIAL    =          8.040127 EV
          HOMO LUMO ENERGIES (EV) =         -8.040 -3.451
          NO. OF FILLED LEVELS    =        223
          MOLECULAR WEIGHT        =       1289.6902

          MOLECULAR DIMENSIONS (Angstroms)

            Atom       Atom       Distance
            H   144    H   123    27.46099
            H   144    H   121    27.41788
            H    76    H    99     8.61406


          SCF CALCULATIONS        =         51
 
          WALL-CLOCK TIME         =         28.473 SECONDS
          COMPUTATION TIME        =         28.199 SECONDS



       FINAL  POINT  AND  DERIVATIVES

   PARAMETER     ATOM    TYPE            VALUE       GRADIENT
      1          1  C    CARTESIAN X    -0.321568     0.412853  KCAL/ANGSTROM
      2          1  C    CARTESIAN Y    -1.710711     0.661046  KCAL/ANGSTROM
      3          1  C    CARTESIAN Z    -0.070160    -0.837469  KCAL/ANGSTROM
      4          2  C    CARTESIAN X    -1.113062     0.665200  KCAL/ANGSTROM
      5          2  C    CARTESIAN Y    -0.539298     0.893470  KCAL/ANGSTROM
      6          2  C    CARTESIAN Z     0.025483    -0.658825  KCAL/ANGSTROM
      7          3  C    CARTESIAN X    -0.548850    -2.700056  KCAL/ANGSTROM
      8          3  C    CARTESIAN Y     0.692032     0.805562  KCAL/ANGSTROM
      9          3  C    CARTESIAN Z    -0.228901     0.314681  KCAL/ANGSTROM
     10          4  C    CARTESIAN X     0.815815    -2.362524  KCAL/ANGSTROM
     11          4  C    CARTESIAN Y     0.801135    -1.708097  KCAL/ANGSTROM
     12          4  C    CARTESIAN Z    -0.591112     0.852445  KCAL/ANGSTROM
     13          5  C    CARTESIAN X     1.601412     1.326999  KCAL/ANGSTROM
     14          5  C    CARTESIAN Y    -0.384312     1.366662  KCAL/ANGSTROM
     15          5  C    CARTESIAN Z    -0.727580    -0.143017  KCAL/ANGSTROM
     16          6  C    CARTESIAN X     1.026063    -0.609498  KCAL/ANGSTROM
     17          6  C    CARTESIAN Y    -1.628502    -1.255096  KCAL/ANGSTROM
     18          6  C    CARTESIAN Z    -0.465371     0.487418  KCAL/ANGSTROM
     19          7  C    CARTESIAN X    -0.880664     0.010758  KCAL/ANGSTROM
     20          7  C    CARTESIAN Y    -2.930457     2.765634  KCAL/ANGSTROM
     21          7  C    CARTESIAN Z     0.247450    -0.334381  KCAL/ANGSTROM
     22          8  C    CARTESIAN X    -1.369141    -1.220357  KCAL/ANGSTROM
     23          8  C    CARTESIAN Y    -4.054227    -4.629053  KCAL/ANGSTROM
     24          8  C    CARTESIAN Z     0.589141     1.091728  KCAL/ANGSTROM
     25          9  C    CARTESIAN X    -1.833266     0.059516  KCAL/ANGSTROM
     26          9  C    CARTESIAN Y    -5.180656     2.459481  KCAL/ANGSTROM
     27          9  C    CARTESIAN Z     0.925046    -0.357855  KCAL/ANGSTROM
     28         10  C    CARTESIAN X     1.394540     2.613502  KCAL/ANGSTROM
     29         10  C    CARTESIAN Y     2.028084     6.495800  KCAL/ANGSTROM
     30         10  C    CARTESIAN Z    -0.800764    -0.324970  KCAL/ANGSTROM
     31         11  C    CARTESIAN X     2.126748    -2.985317  KCAL/ANGSTROM
     32         11  C    CARTESIAN Y     3.029716    -4.107752  KCAL/ANGSTROM
     33         11  C    CARTESIAN Z    -1.031814     0.770238  KCAL/ANGSTROM
     34         12  C    CARTESIAN X     2.850755    -1.226525  KCAL/ANGSTROM
     35         12  C    CARTESIAN Y     4.047845    -1.849003  KCAL/ANGSTROM
     36         12  C    CARTESIAN Z    -1.262767     0.722416  KCAL/ANGSTROM
     37         13  C    CARTESIAN X     2.948204     0.527586  KCAL/ANGSTROM
     38         13  C    CARTESIAN Y    -0.279205     0.475074  KCAL/ANGSTROM
     39         13  C    CARTESIAN Z    -1.115427    -0.351660  KCAL/ANGSTROM
     40         14  C    CARTESIAN X     4.112549    -1.443468  KCAL/ANGSTROM
     41         14  C    CARTESIAN Y    -0.131263     0.216067  KCAL/ANGSTROM
     42         14  C    CARTESIAN Z    -1.441000    -0.336748  KCAL/ANGSTROM
     43         15  C    CARTESIAN X     5.459312    -0.714154  KCAL/ANGSTROM
     44         15  C    CARTESIAN Y     0.098028     0.469965  KCAL/ANGSTROM
     45         15  C    CARTESIAN Z    -1.784503    -0.089794  KCAL/ANGSTROM
     46         16  C    CARTESIAN X     5.938786     1.231281  KCAL/ANGSTROM
     47         16  C    CARTESIAN Y     1.418713     1.258898  KCAL/ANGSTROM
     48         16  C    CARTESIAN Z    -1.800986    -0.234689  KCAL/ANGSTROM
     49         17  C    CARTESIAN X     7.285012    -0.122983  KCAL/ANGSTROM
     50         17  C    CARTESIAN Y     1.670750     0.452134  KCAL/ANGSTROM
     51         17  C    CARTESIAN Z    -2.040573     0.231453  KCAL/ANGSTROM
     52         18  C    CARTESIAN X     8.146663    -0.015231  KCAL/ANGSTROM
     53         18  C    CARTESIAN Y     0.606752     0.564116  KCAL/ANGSTROM
     54         18  C    CARTESIAN Z    -2.300405    -0.140487  KCAL/ANGSTROM
     55         19  C    CARTESIAN X     7.659968    -0.367891  KCAL/ANGSTROM
     56         19  C    CARTESIAN Y    -0.702980     0.197903  KCAL/ANGSTROM
     57         19  C    CARTESIAN Z    -2.415058    -0.841841  KCAL/ANGSTROM
     58         20  C    CARTESIAN X     6.325990    -1.079303  KCAL/ANGSTROM
     59         20  C    CARTESIAN Y    -0.960721    -1.011543  KCAL/ANGSTROM
     60         20  C    CARTESIAN Z    -2.088044     0.170552  KCAL/ANGSTROM
     61         21  S    CARTESIAN X     9.894861     0.262774  KCAL/ANGSTROM
     62         21  S    CARTESIAN Y     0.897538     0.241646  KCAL/ANGSTROM
     63         21  S    CARTESIAN Z    -2.373256    -0.134048  KCAL/ANGSTROM
     64         22  C    CARTESIAN X    10.499294     0.524072  KCAL/ANGSTROM
     65         22  C    CARTESIAN Y    -0.617219     0.635857  KCAL/ANGSTROM
     66         22  C    CARTESIAN Z    -1.675324    -0.194664  KCAL/ANGSTROM
     67         23  C    CARTESIAN X     9.777613    -0.249853  KCAL/ANGSTROM
     68         23  C    CARTESIAN Y    -1.798204    -0.470529  KCAL/ANGSTROM
     69         23  C    CARTESIAN Z    -1.895024     0.644130  KCAL/ANGSTROM
     70         24  C    CARTESIAN X     8.597720     0.075494  KCAL/ANGSTROM
     71         24  C    CARTESIAN Y    -1.776203     0.825161  KCAL/ANGSTROM
     72         24  C    CARTESIAN Z    -2.776420     0.231119  KCAL/ANGSTROM
     73         25  C    CARTESIAN X    11.679500     0.374132  KCAL/ANGSTROM
     74         25  C    CARTESIAN Y    -0.630859     0.120988  KCAL/ANGSTROM
     75         25  C    CARTESIAN Z    -0.934694     0.531262  KCAL/ANGSTROM
     76         26  C    CARTESIAN X    12.184120     0.827985  KCAL/ANGSTROM
     77         26  C    CARTESIAN Y    -1.841158     0.867850  KCAL/ANGSTROM
     78         26  C    CARTESIAN Z    -0.461091     0.363511  KCAL/ANGSTROM
     79         27  C    CARTESIAN X    11.481291     0.197905  KCAL/ANGSTROM
     80         27  C    CARTESIAN Y    -3.029489     0.168988  KCAL/ANGSTROM
     81         27  C    CARTESIAN Z    -0.697144     0.050361  KCAL/ANGSTROM
     82         28  C    CARTESIAN X    10.234161    -1.795540  KCAL/ANGSTROM
     83         28  C    CARTESIAN Y    -2.990697     0.665873  KCAL/ANGSTROM
     84         28  C    CARTESIAN Z    -1.341536    -1.621601  KCAL/ANGSTROM
     85         29  C    CARTESIAN X     8.482158     0.557495  KCAL/ANGSTROM
     86         29  C    CARTESIAN Y    -2.633670     1.053981  KCAL/ANGSTROM
     87         29  C    CARTESIAN Z    -3.804856    -0.261355  KCAL/ANGSTROM
     88         30  C    CARTESIAN X     7.383768    -0.224265  KCAL/ANGSTROM
     89         30  C    CARTESIAN Y    -2.801197     0.025798  KCAL/ANGSTROM
     90         30  C    CARTESIAN Z    -4.851179    -1.173453  KCAL/ANGSTROM
     91         31  C    CARTESIAN X     7.058714     0.744600  KCAL/ANGSTROM
     92         31  C    CARTESIAN Y    -4.324374     0.067765  KCAL/ANGSTROM
     93         31  C    CARTESIAN Z    -4.667090     0.051423  KCAL/ANGSTROM
     94         32  C    CARTESIAN X     8.421560     0.090470  KCAL/ANGSTROM
     95         32  C    CARTESIAN Y    -4.883488     0.627292  KCAL/ANGSTROM
     96         32  C    CARTESIAN Z    -4.377833     0.422801  KCAL/ANGSTROM
     97         33  C    CARTESIAN X     9.297919     0.920538  KCAL/ANGSTROM
     98         33  C    CARTESIAN Y    -3.860185    -0.790256  KCAL/ANGSTROM
     99         33  C    CARTESIAN Z    -4.021968     0.463027  KCAL/ANGSTROM
    100         34  C    CARTESIAN X     8.840348     0.954973  KCAL/ANGSTROM
    101         34  C    CARTESIAN Y    -6.217885    -2.549506  KCAL/ANGSTROM
    102         34  C    CARTESIAN Z    -4.496397    -0.591519  KCAL/ANGSTROM
    103         35  C    CARTESIAN X    10.173733     0.244353  KCAL/ANGSTROM
    104         35  C    CARTESIAN Y    -6.501201     0.536563  KCAL/ANGSTROM
    105         35  C    CARTESIAN Z    -4.317736    -0.587663  KCAL/ANGSTROM
    106         36  C    CARTESIAN X    11.114671    -0.157633  KCAL/ANGSTROM
    107         36  C    CARTESIAN Y    -5.460979    -0.622240  KCAL/ANGSTROM
    108         36  C    CARTESIAN Z    -4.098403    -0.553050  KCAL/ANGSTROM
    109         37  C    CARTESIAN X    10.688000     0.619295  KCAL/ANGSTROM
    110         37  C    CARTESIAN Y    -4.111040     0.734692  KCAL/ANGSTROM
    111         37  C    CARTESIAN Z    -3.990891     0.882378  KCAL/ANGSTROM
    112         38  C    CARTESIAN X    12.504209    -1.972209  KCAL/ANGSTROM
    113         38  C    CARTESIAN Y    -5.758477    -1.175889  KCAL/ANGSTROM
    114         38  C    CARTESIAN Z    -4.021522     0.329828  KCAL/ANGSTROM
    115         39  C    CARTESIAN X    13.425979     0.133337  KCAL/ANGSTROM
    116         39  C    CARTESIAN Y    -4.749813     0.204437  KCAL/ANGSTROM
    117         39  C    CARTESIAN Z    -3.926235     0.305142  KCAL/ANGSTROM
    118         40  C    CARTESIAN X    13.003071     0.813322  KCAL/ANGSTROM
    119         40  C    CARTESIAN Y    -3.395582     0.477195  KCAL/ANGSTROM
    120         40  C    CARTESIAN Z    -3.916189     0.706304  KCAL/ANGSTROM
    121         41  C    CARTESIAN X    11.669859    -0.273436  KCAL/ANGSTROM
    122         41  C    CARTESIAN Y    -3.083462    -0.626647  KCAL/ANGSTROM
    123         41  C    CARTESIAN Z    -3.939937    -0.315575  KCAL/ANGSTROM
    124         42  C    CARTESIAN X     6.152438    -3.406795  KCAL/ANGSTROM
    125         42  C    CARTESIAN Y    -1.920966    -0.410852  KCAL/ANGSTROM
    126         42  C    CARTESIAN Z    -4.851007    -1.556304  KCAL/ANGSTROM
    127         43  C    CARTESIAN X    12.041252     0.258318  KCAL/ANGSTROM
    128         43  C    CARTESIAN Y    -4.298761     2.089318  KCAL/ANGSTROM
    129         43  C    CARTESIAN Z    -0.460892    -0.410049  KCAL/ANGSTROM
    130         44  C    CARTESIAN X    12.493098     0.381857  KCAL/ANGSTROM
    131         44  C    CARTESIAN Y    -5.429964     1.891827  KCAL/ANGSTROM
    132         44  C    CARTESIAN Z    -0.426650     0.822559  KCAL/ANGSTROM
    133         45  C    CARTESIAN X    13.013309     0.899117  KCAL/ANGSTROM
    134         45  C    CARTESIAN Y    -6.732772    -0.969325  KCAL/ANGSTROM
    135         45  C    CARTESIAN Z    -0.517273    -0.706806  KCAL/ANGSTROM
    136         46  C    CARTESIAN X    14.405598    -0.162178  KCAL/ANGSTROM
    137         46  C    CARTESIAN Y    -6.933651    -1.242757  KCAL/ANGSTROM
    138         46  C    CARTESIAN Z    -0.758607    -0.150411  KCAL/ANGSTROM
    139         47  C    CARTESIAN X    14.918680     0.212393  KCAL/ANGSTROM
    140         47  C    CARTESIAN Y    -8.248330    -0.624759  KCAL/ANGSTROM
    141         47  C    CARTESIAN Z    -0.871933     0.721958  KCAL/ANGSTROM
    142         48  C    CARTESIAN X    14.074822     1.548007  KCAL/ANGSTROM
    143         48  C    CARTESIAN Y    -9.332333     1.851390  KCAL/ANGSTROM
    144         48  C    CARTESIAN Z    -0.821814    -0.238031  KCAL/ANGSTROM
    145         49  C    CARTESIAN X    12.680136     0.189451  KCAL/ANGSTROM
    146         49  C    CARTESIAN Y    -9.129103    -1.154993  KCAL/ANGSTROM
    147         49  C    CARTESIAN Z    -0.643348    -0.277303  KCAL/ANGSTROM
    148         50  C    CARTESIAN X    12.162044    -0.053463  KCAL/ANGSTROM
    149         50  C    CARTESIAN Y    -7.837141     1.216243  KCAL/ANGSTROM
    150         50  C    CARTESIAN Z    -0.457315     0.840138  KCAL/ANGSTROM
    151         51  C    CARTESIAN X    11.869336     0.616909  KCAL/ANGSTROM
    152         51  C    CARTESIAN Y   -10.240687     1.521852  KCAL/ANGSTROM
    153         51  C    CARTESIAN Z    -0.695372     0.596981  KCAL/ANGSTROM
    154         52  C    CARTESIAN X    11.186855     0.455749  KCAL/ANGSTROM
    155         52  C    CARTESIAN Y   -11.301097     0.611764  KCAL/ANGSTROM
    156         52  C    CARTESIAN Z    -0.848970    -0.332746  KCAL/ANGSTROM
    157         53  C    CARTESIAN X    10.571325     0.079308  KCAL/ANGSTROM
    158         53  C    CARTESIAN Y   -12.393842    -0.419656  KCAL/ANGSTROM
    159         53  C    CARTESIAN Z    -1.011425     0.084461  KCAL/ANGSTROM
    160         54  C    CARTESIAN X    15.224402     0.779900  KCAL/ANGSTROM
    161         54  C    CARTESIAN Y    -5.858591    -2.672149  KCAL/ANGSTROM
    162         54  C    CARTESIAN Z    -0.957167     0.032693  KCAL/ANGSTROM
    163         55  C    CARTESIAN X    15.735044     0.362923  KCAL/ANGSTROM
    164         55  C    CARTESIAN Y    -4.719088    -0.809395  KCAL/ANGSTROM
    165         55  C    CARTESIAN Z    -1.160694    -0.145892  KCAL/ANGSTROM
    166         56  C    CARTESIAN X    16.250031    -1.770922  KCAL/ANGSTROM
    167         56  C    CARTESIAN Y    -3.585792    -3.048193  KCAL/ANGSTROM
    168         56  C    CARTESIAN Z    -1.395644    -0.157636  KCAL/ANGSTROM
    169         57  H    CARTESIAN X    -2.161338    -0.478044  KCAL/ANGSTROM
    170         57  H    CARTESIAN Y    -0.622704    -0.113254  KCAL/ANGSTROM
    171         57  H    CARTESIAN Z     0.308494     0.100900  KCAL/ANGSTROM
    172         58  H    CARTESIAN X    -1.144324    -0.143345  KCAL/ANGSTROM
    173         58  H    CARTESIAN Y     1.606515    -0.114660  KCAL/ANGSTROM
    174         58  H    CARTESIAN Z    -0.146999     0.120281  KCAL/ANGSTROM
    175         59  H    CARTESIAN X     1.623013    -0.012289  KCAL/ANGSTROM
    176         59  H    CARTESIAN Y    -2.534602    -0.400293  KCAL/ANGSTROM
    177         59  H    CARTESIAN Z    -0.561516    -0.175154  KCAL/ANGSTROM
    178         60  H    CARTESIAN X     5.248769    -0.074853  KCAL/ANGSTROM
    179         60  H    CARTESIAN Y     2.239361     0.113110  KCAL/ANGSTROM
    180         60  H    CARTESIAN Z    -1.593253     0.191971  KCAL/ANGSTROM
    181         61  H    CARTESIAN X     7.654460    -0.005577  KCAL/ANGSTROM
    182         61  H    CARTESIAN Y     2.699122     0.103805  KCAL/ANGSTROM
    183         61  H    CARTESIAN Z    -2.002238    -0.178468  KCAL/ANGSTROM
    184         62  H    CARTESIAN X     5.965285    -0.011891  KCAL/ANGSTROM
    185         62  H    CARTESIAN Y    -1.987799     0.676896  KCAL/ANGSTROM
    186         62  H    CARTESIAN Z    -2.060835    -0.312021  KCAL/ANGSTROM
    187         63  H    CARTESIAN X    12.225800    -0.191134  KCAL/ANGSTROM
    188         63  H    CARTESIAN Y     0.293267     0.181750  KCAL/ANGSTROM
    189         63  H    CARTESIAN Z    -0.731779     0.068818  KCAL/ANGSTROM
    190         64  H    CARTESIAN X    13.124444    -0.555131  KCAL/ANGSTROM
    191         64  H    CARTESIAN Y    -1.870108     0.004650  KCAL/ANGSTROM
    192         64  H    CARTESIAN Z     0.089384     0.335371  KCAL/ANGSTROM
    193         65  H    CARTESIAN X     9.654837     0.446886  KCAL/ANGSTROM
    194         65  H    CARTESIAN Y    -3.906287     0.682275  KCAL/ANGSTROM
    195         65  H    CARTESIAN Z    -1.459875     0.126777  KCAL/ANGSTROM
    196         66  H    CARTESIAN X     7.888800     0.529533  KCAL/ANGSTROM
    197         66  H    CARTESIAN Y    -2.669587    -0.635595  KCAL/ANGSTROM
    198         66  H    CARTESIAN Z    -5.849516     0.203820  KCAL/ANGSTROM
    199         67  H    CARTESIAN X     6.585144    -0.112192  KCAL/ANGSTROM
    200         67  H    CARTESIAN Y    -4.766385    -0.444295  KCAL/ANGSTROM
    201         67  H    CARTESIAN Z    -5.552123     1.143577  KCAL/ANGSTROM
    202         68  H    CARTESIAN X     6.366074     0.575073  KCAL/ANGSTROM
    203         68  H    CARTESIAN Y    -4.476614     0.374695  KCAL/ANGSTROM
    204         68  H    CARTESIAN Z    -3.820610     0.672939  KCAL/ANGSTROM
    205         69  H    CARTESIAN X     8.118108     0.399084  KCAL/ANGSTROM
    206         69  H    CARTESIAN Y    -6.993666     0.799901  KCAL/ANGSTROM
    207         69  H    CARTESIAN Z    -4.725517     0.256442  KCAL/ANGSTROM
    208         70  H    CARTESIAN X    10.531677    -0.207289  KCAL/ANGSTROM
    209         70  H    CARTESIAN Y    -7.528185    -0.096296  KCAL/ANGSTROM
    210         70  H    CARTESIAN Z    -4.375492    -0.281586  KCAL/ANGSTROM
    211         71  H    CARTESIAN X    12.816654     0.011210  KCAL/ANGSTROM
    212         71  H    CARTESIAN Y    -6.799764    -0.169711  KCAL/ANGSTROM
    213         71  H    CARTESIAN Z    -4.057011    -0.164771  KCAL/ANGSTROM
    214         72  H    CARTESIAN X    14.491695     0.039064  KCAL/ANGSTROM
    215         72  H    CARTESIAN Y    -4.967764    -0.078687  KCAL/ANGSTROM
    216         72  H    CARTESIAN Z    -3.867707     0.054849  KCAL/ANGSTROM
    217         73  H    CARTESIAN X    13.756137    -0.309882  KCAL/ANGSTROM
    218         73  H    CARTESIAN Y    -2.610771    -0.599323  KCAL/ANGSTROM
    219         73  H    CARTESIAN Z    -3.898482     0.007689  KCAL/ANGSTROM
    220         74  H    CARTESIAN X    11.337250    -0.069391  KCAL/ANGSTROM
    221         74  H    CARTESIAN Y    -2.043988     0.340201  KCAL/ANGSTROM
    222         74  H    CARTESIAN Z    -3.936200     0.093443  KCAL/ANGSTROM
    223         75  H    CARTESIAN X     5.451270     1.598064  KCAL/ANGSTROM
    224         75  H    CARTESIAN Y    -2.174275     0.127524  KCAL/ANGSTROM
    225         75  H    CARTESIAN Z    -4.053163    -0.867877  KCAL/ANGSTROM
    226         76  H    CARTESIAN X     5.608311     1.554303  KCAL/ANGSTROM
    227         76  H    CARTESIAN Y    -2.021545    -0.259330  KCAL/ANGSTROM
    228         76  H    CARTESIAN Z    -5.795916     1.386033  KCAL/ANGSTROM
    229         77  H    CARTESIAN X     6.423009     0.842839  KCAL/ANGSTROM
    230         77  H    CARTESIAN Y    -0.859146     0.561150  KCAL/ANGSTROM
    231         77  H    CARTESIAN Z    -4.746026    -0.169512  KCAL/ANGSTROM
    232         78  H    CARTESIAN X    15.995541     1.122595  KCAL/ANGSTROM
    233         78  H    CARTESIAN Y    -8.380323    -0.247104  KCAL/ANGSTROM
    234         78  H    CARTESIAN Z    -1.028228    -0.616560  KCAL/ANGSTROM
    235         79  H    CARTESIAN X    14.459820    -0.000763  KCAL/ANGSTROM
    236         79  H    CARTESIAN Y   -10.344158     0.001270  KCAL/ANGSTROM
    237         79  H    CARTESIAN Z    -0.929265    -0.140515  KCAL/ANGSTROM
    238         80  H    CARTESIAN X    11.095144     0.123585  KCAL/ANGSTROM
    239         80  H    CARTESIAN Y    -7.693681    -0.175489  KCAL/ANGSTROM
    240         80  H    CARTESIAN Z    -0.293223    -0.104382  KCAL/ANGSTROM
    241         81  C    CARTESIAN X    -2.290615     0.323441  KCAL/ANGSTROM
    242         81  C    CARTESIAN Y    -6.424167     0.608609  KCAL/ANGSTROM
    243         81  C    CARTESIAN Z     1.273006     0.719939  KCAL/ANGSTROM
    244         82  B    CARTESIAN X    -3.836247     0.034609  KCAL/ANGSTROM
    245         82  B    CARTESIAN Y    -6.648091    -0.500005  KCAL/ANGSTROM
    246         82  B    CARTESIAN Z     2.044705    -0.240247  KCAL/ANGSTROM
    247         83  B    CARTESIAN X    -3.606360    -0.496407  KCAL/ANGSTROM
    248         83  B    CARTESIAN Y    -7.225297    -0.355019  KCAL/ANGSTROM
    249         83  B    CARTESIAN Z     0.329348     0.589192  KCAL/ANGSTROM
    250         84  B    CARTESIAN X    -2.329969     0.340687  KCAL/ANGSTROM
    251         84  B    CARTESIAN Y    -6.955548    -0.857212  KCAL/ANGSTROM
    252         84  B    CARTESIAN Z     3.011113    -0.007383  KCAL/ANGSTROM
    253         85  B    CARTESIAN X    -1.910565    -0.946564  KCAL/ANGSTROM
    254         85  B    CARTESIAN Y    -7.799690    -0.690173  KCAL/ANGSTROM
    255         85  B    CARTESIAN Z     0.198134     0.601980  KCAL/ANGSTROM
    256         86  B    CARTESIAN X    -1.118251    -1.213447  KCAL/ANGSTROM
    257         86  B    CARTESIAN Y    -7.603204     0.263646  KCAL/ANGSTROM
    258         86  B    CARTESIAN Z     1.844216    -0.403261  KCAL/ANGSTROM
    259         87  B    CARTESIAN X    -1.691585     0.508366  KCAL/ANGSTROM
    260         87  B    CARTESIAN Y    -9.204757    -0.193613  KCAL/ANGSTROM
    261         87  B    CARTESIAN Z     1.275686     0.398056  KCAL/ANGSTROM
    262         88  B    CARTESIAN X    -1.982359     0.101991  KCAL/ANGSTROM
    263         88  B    CARTESIAN Y    -8.701898    -0.376693  KCAL/ANGSTROM
    264         88  B    CARTESIAN Z     2.988455    -0.502214  KCAL/ANGSTROM
    265         89  B    CARTESIAN X    -3.248227     0.237087  KCAL/ANGSTROM
    266         89  B    CARTESIAN Y    -8.981788     0.216279  KCAL/ANGSTROM
    267         89  B    CARTESIAN Z     0.373019     0.970591  KCAL/ANGSTROM
    268         90  B    CARTESIAN X    -3.689148    -0.596958  KCAL/ANGSTROM
    269         90  B    CARTESIAN Y    -8.097282     0.196202  KCAL/ANGSTROM
    270         90  B    CARTESIAN Z     3.120631    -0.264529  KCAL/ANGSTROM
    271         91  B    CARTESIAN X    -4.465153     0.029721  KCAL/ANGSTROM
    272         91  B    CARTESIAN Y    -8.252281    -0.370233  KCAL/ANGSTROM
    273         91  B    CARTESIAN Z     1.498089     0.161777  KCAL/ANGSTROM
    274         92  C    CARTESIAN X    -3.271505     0.597857  KCAL/ANGSTROM
    275         92  C    CARTESIAN Y    -9.443791     0.163567  KCAL/ANGSTROM
    276         92  C    CARTESIAN Z     2.058793     0.044361  KCAL/ANGSTROM
    277         93  H    CARTESIAN X    -4.572525     0.062965  KCAL/ANGSTROM
    278         93  H    CARTESIAN Y    -5.716387     0.104852  KCAL/ANGSTROM
    279         93  H    CARTESIAN Z     2.302662    -0.217480  KCAL/ANGSTROM
    280         94  H    CARTESIAN X    -4.157627    -0.305307  KCAL/ANGSTROM
    281         94  H    CARTESIAN Y    -6.671956     0.171366  KCAL/ANGSTROM
    282         94  H    CARTESIAN Z    -0.602199    -0.144584  KCAL/ANGSTROM
    283         95  H    CARTESIAN X    -1.998574    -0.035041  KCAL/ANGSTROM
    284         95  H    CARTESIAN Y    -6.214475    -0.133770  KCAL/ANGSTROM
    285         95  H    CARTESIAN Z     3.914949    -0.169379  KCAL/ANGSTROM
    286         96  H    CARTESIAN X    -1.282141     0.160494  KCAL/ANGSTROM
    287         96  H    CARTESIAN Y    -7.656933    -0.095610  KCAL/ANGSTROM
    288         96  H    CARTESIAN Z    -0.832712    -0.255852  KCAL/ANGSTROM
    289         97  H    CARTESIAN X     0.062788     0.356790  KCAL/ANGSTROM
    290         97  H    CARTESIAN Y    -7.338892     0.021977  KCAL/ANGSTROM
    291         97  H    CARTESIAN Z     1.964205     0.344936  KCAL/ANGSTROM
    292         98  H    CARTESIAN X    -0.948559    -0.286476  KCAL/ANGSTROM
    293         98  H    CARTESIAN Y   -10.130748     0.149326  KCAL/ANGSTROM
    294         98  H    CARTESIAN Z     1.022285     0.126460  KCAL/ANGSTROM
    295         99  H    CARTESIAN X    -1.440982    -0.222552  KCAL/ANGSTROM
    296         99  H    CARTESIAN Y    -9.282972    -0.343137  KCAL/ANGSTROM
    297         99  H    CARTESIAN Z     3.907997     0.100033  KCAL/ANGSTROM
    298        100  H    CARTESIAN X    -3.580767    -0.175340  KCAL/ANGSTROM
    299        100  H    CARTESIAN Y    -9.749860    -0.389386  KCAL/ANGSTROM
    300        100  H    CARTESIAN Z    -0.508706    -0.273636  KCAL/ANGSTROM
    301        101  H    CARTESIAN X    -4.344045    -0.093143  KCAL/ANGSTROM
    302        101  H    CARTESIAN Y    -8.267215    -0.933529  KCAL/ANGSTROM
    303        101  H    CARTESIAN Z     4.129761    -0.082732  KCAL/ANGSTROM
    304        102  H    CARTESIAN X    -5.647372    -0.020303  KCAL/ANGSTROM
    305        102  H    CARTESIAN Y    -8.516246    -0.211126  KCAL/ANGSTROM
    306        102  H    CARTESIAN Z     1.404774    -0.078688  KCAL/ANGSTROM
    307        103  H    CARTESIAN X    -3.603392     0.086501  KCAL/ANGSTROM
    308        103  H    CARTESIAN Y   -10.464362    -0.091045  KCAL/ANGSTROM
    309        103  H    CARTESIAN Z     2.326587     0.102026  KCAL/ANGSTROM
    310        104  C    CARTESIAN X     3.577679     2.038766  KCAL/ANGSTROM
    311        104  C    CARTESIAN Y     5.163850     0.752900  KCAL/ANGSTROM
    312        104  C    CARTESIAN Z    -1.507976    -0.260076  KCAL/ANGSTROM
    313        105  B    CARTESIAN X     4.890526    -0.004982  KCAL/ANGSTROM
    314        105  B    CARTESIAN Y     5.161997     1.039194  KCAL/ANGSTROM
    315        105  B    CARTESIAN Z    -2.754045     0.128472  KCAL/ANGSTROM
    316        106  B    CARTESIAN X     3.309913     0.459622  KCAL/ANGSTROM
    317        106  B    CARTESIAN Y     6.067187     0.182238  KCAL/ANGSTROM
    318        106  B    CARTESIAN Z    -2.974830    -0.371669  KCAL/ANGSTROM
    319        107  B    CARTESIAN X     5.319996     0.218268  KCAL/ANGSTROM
    320        107  B    CARTESIAN Y     5.275029     0.701316  KCAL/ANGSTROM
    321        107  B    CARTESIAN Z    -1.025203    -0.329929  KCAL/ANGSTROM
    322        108  B    CARTESIAN X     2.797682     0.817004  KCAL/ANGSTROM
    323        108  B    CARTESIAN Y     6.842066     0.889616  KCAL/ANGSTROM
    324        108  B    CARTESIAN Z    -1.422361     0.013546  KCAL/ANGSTROM
    325        109  B    CARTESIAN X     3.991679    -0.014684  KCAL/ANGSTROM
    326        109  B    CARTESIAN Y     6.242944    -0.102995  KCAL/ANGSTROM
    327        109  B    CARTESIAN Z    -0.207944    -0.872865  KCAL/ANGSTROM
    328        110  B    CARTESIAN X     4.077129    -0.197154  KCAL/ANGSTROM
    329        110  B    CARTESIAN Y     7.928205    -0.709741  KCAL/ANGSTROM
    330        110  B    CARTESIAN Z    -0.874299     0.140220  KCAL/ANGSTROM
    331        111  B    CARTESIAN X     5.588301    -0.147045  KCAL/ANGSTROM
    332        111  B    CARTESIAN Y     6.976777     0.257752  KCAL/ANGSTROM
    333        111  B    CARTESIAN Z    -0.602123     0.738154  KCAL/ANGSTROM
    334        112  B    CARTESIAN X     3.643394     0.500877  KCAL/ANGSTROM
    335        112  B    CARTESIAN Y     7.814927    -0.799389  KCAL/ANGSTROM
    336        112  B    CARTESIAN Z    -2.632192     0.083205  KCAL/ANGSTROM
    337        113  B    CARTESIAN X     6.127422    -0.723245  KCAL/ANGSTROM
    338        113  B    CARTESIAN Y     6.345981     0.704594  KCAL/ANGSTROM
    339        113  B    CARTESIAN Z    -2.214204     0.201403  KCAL/ANGSTROM
    340        114  B    CARTESIAN X     4.884203    -0.542059  KCAL/ANGSTROM
    341        114  B    CARTESIAN Y     6.790215    -0.226818  KCAL/ANGSTROM
    342        114  B    CARTESIAN Z    -3.455018     1.152985  KCAL/ANGSTROM
    343        115  C    CARTESIAN X     5.321685    -0.892572  KCAL/ANGSTROM
    344        115  C    CARTESIAN Y     7.886424    -0.761307  KCAL/ANGSTROM
    345        115  C    CARTESIAN Z    -2.117332    -0.264988  KCAL/ANGSTROM
    346        116  H    CARTESIAN X     5.136765    -0.136119  KCAL/ANGSTROM
    347        116  H    CARTESIAN Y     4.160907    -0.578953  KCAL/ANGSTROM
    348        116  H    CARTESIAN Z    -3.397093    -0.338105  KCAL/ANGSTROM
    349        117  H    CARTESIAN X     2.488310     0.530310  KCAL/ANGSTROM
    350        117  H    CARTESIAN Y     5.706133    -0.016412  KCAL/ANGSTROM
    351        117  H    CARTESIAN Z    -3.792051     0.339271  KCAL/ANGSTROM
    352        118  H    CARTESIAN X     5.872130     0.082086  KCAL/ANGSTROM
    353        118  H    CARTESIAN Y     4.355380    -0.160146  KCAL/ANGSTROM
    354        118  H    CARTESIAN Z    -0.457197    -0.018445  KCAL/ANGSTROM
    355        119  H    CARTESIAN X     1.625117    -0.177599  KCAL/ANGSTROM
    356        119  H    CARTESIAN Y     6.972822     0.138051  KCAL/ANGSTROM
    357        119  H    CARTESIAN Z    -1.135845     0.285727  KCAL/ANGSTROM
    358        120  H    CARTESIAN X     3.648894    -0.154204  KCAL/ANGSTROM
    359        120  H    CARTESIAN Y     6.005665    -0.252133  KCAL/ANGSTROM
    360        120  H    CARTESIAN Z     0.933637     0.021687  KCAL/ANGSTROM
    361        121  H    CARTESIAN X     3.852960    -0.096694  KCAL/ANGSTROM
    362        121  H    CARTESIAN Y     8.923566     0.129955  KCAL/ANGSTROM
    363        121  H    CARTESIAN Z    -0.217051     0.007172  KCAL/ANGSTROM
    364        122  H    CARTESIAN X     6.386872    -0.067073  KCAL/ANGSTROM
    365        122  H    CARTESIAN Y     7.327873    -0.128426  KCAL/ANGSTROM
    366        122  H    CARTESIAN Z     0.240729     0.113319  KCAL/ANGSTROM
    367        123  H    CARTESIAN X     3.108276    -0.280736  KCAL/ANGSTROM
    368        123  H    CARTESIAN Y     8.729041     0.357946  KCAL/ANGSTROM
    369        123  H    CARTESIAN Z    -3.225983    -0.162615  KCAL/ANGSTROM
    370        124  H    CARTESIAN X     7.304073     0.733265  KCAL/ANGSTROM
    371        124  H    CARTESIAN Y     6.251005     0.026147  KCAL/ANGSTROM
    372        124  H    CARTESIAN Z    -2.498061    -0.137476  KCAL/ANGSTROM
    373        125  H    CARTESIAN X     5.188741    -0.023458  KCAL/ANGSTROM
    374        125  H    CARTESIAN Y     7.012817     0.121195  KCAL/ANGSTROM
    375        125  H    CARTESIAN Z    -4.610044    -0.916209  KCAL/ANGSTROM
    376        126  H    CARTESIAN X     5.907389     0.285492  KCAL/ANGSTROM
    377        126  H    CARTESIAN Y     8.799993     0.089570  KCAL/ANGSTROM
    378        126  H    CARTESIAN Z    -2.323576    -0.300819  KCAL/ANGSTROM
    379        127  C    CARTESIAN X     9.958259    -0.546329  KCAL/ANGSTROM
    380        127  C    CARTESIAN Y   -13.597466    -0.064939  KCAL/ANGSTROM
    381        127  C    CARTESIAN Z    -1.235758    -0.608245  KCAL/ANGSTROM
    382        128  B    CARTESIAN X     8.326802     0.572976  KCAL/ANGSTROM
    383        128  B    CARTESIAN Y   -13.695879    -0.542300  KCAL/ANGSTROM
    384        128  B    CARTESIAN Z    -1.867326     0.544233  KCAL/ANGSTROM
    385        129  B    CARTESIAN X     9.694369    -0.318078  KCAL/ANGSTROM
    386        129  B    CARTESIAN Y   -14.174017    -0.596077  KCAL/ANGSTROM
    387        129  B    CARTESIAN Z    -2.940348     0.421448  KCAL/ANGSTROM
    388        130  B    CARTESIAN X     8.688642    -0.401960  KCAL/ANGSTROM
    389        130  B    CARTESIAN Y   -14.216990    -0.596571  KCAL/ANGSTROM
    390        130  B    CARTESIAN Z    -0.149531    -0.702499  KCAL/ANGSTROM
    391        131  B    CARTESIAN X    10.954838    -1.150234  KCAL/ANGSTROM
    392        131  B    CARTESIAN Y   -14.895486    -0.033099  KCAL/ANGSTROM
    393        131  B    CARTESIAN Z    -1.846029     0.314383  KCAL/ANGSTROM
    394        132  B    CARTESIAN X    10.312613    -0.094687  KCAL/ANGSTROM
    395        132  B    CARTESIAN Y   -14.983280    -0.709352  KCAL/ANGSTROM
    396        132  B    CARTESIAN Z    -0.133034    -0.028657  KCAL/ANGSTROM
    397        133  B    CARTESIAN X    10.285602     0.675733  KCAL/ANGSTROM
    398        133  B    CARTESIAN Y   -16.424968    -0.309560  KCAL/ANGSTROM
    399        133  B    CARTESIAN Z    -1.177499    -0.745074  KCAL/ANGSTROM
    400        134  B    CARTESIAN X     8.853113     0.008327  KCAL/ANGSTROM
    401        134  B    CARTESIAN Y   -16.010653    -0.278886  KCAL/ANGSTROM
    402        134  B    CARTESIAN Z    -0.143506    -0.085377  KCAL/ANGSTROM
    403        135  B    CARTESIAN X     9.898876     0.574375  KCAL/ANGSTROM
    404        135  B    CARTESIAN Y   -15.936032     0.274072  KCAL/ANGSTROM
    405        135  B    CARTESIAN Z    -2.874528     0.629697  KCAL/ANGSTROM
    406        136  B    CARTESIAN X     7.613627    -0.471365  KCAL/ANGSTROM
    407        136  B    CARTESIAN Y   -15.197126    -0.245719  KCAL/ANGSTROM
    408        136  B    CARTESIAN Z    -1.182792    -0.017345  KCAL/ANGSTROM
    409        137  B    CARTESIAN X     8.239746    -0.040654  KCAL/ANGSTROM
    410        137  B    CARTESIAN Y   -15.195804    -0.021761  KCAL/ANGSTROM
    411        137  B    CARTESIAN Z    -2.878157     0.872208  KCAL/ANGSTROM
    412        138  C    CARTESIAN X     8.627501     0.069070  KCAL/ANGSTROM
    413        138  C    CARTESIAN Y   -16.525461    -0.567790  KCAL/ANGSTROM
    414        138  C    CARTESIAN Z    -1.801819    -0.674247  KCAL/ANGSTROM
    415        139  H    CARTESIAN X     7.661539    -0.048020  KCAL/ANGSTROM
    416        139  H    CARTESIAN Y   -12.705666     0.152557  KCAL/ANGSTROM
    417        139  H    CARTESIAN Z    -2.099898     0.158013  KCAL/ANGSTROM
    418        140  H    CARTESIAN X    10.001859    -0.126872  KCAL/ANGSTROM
    419        140  H    CARTESIAN Y   -13.501523    -0.205128  KCAL/ANGSTROM
    420        140  H    CARTESIAN Z    -3.904406    -0.172028  KCAL/ANGSTROM
    421        141  H    CARTESIAN X     8.286253    -0.309582  KCAL/ANGSTROM
    422        141  H    CARTESIAN Y   -13.577948     0.358860  KCAL/ANGSTROM
    423        141  H    CARTESIAN Z     0.804022     0.320515  KCAL/ANGSTROM
    424        142  H    CARTESIAN X    12.141092     0.136987  KCAL/ANGSTROM
    425        142  H    CARTESIAN Y   -14.758315    -0.240118  KCAL/ANGSTROM
    426        142  H    CARTESIAN Z    -2.072427    -0.065998  KCAL/ANGSTROM
    427        143  H    CARTESIAN X    11.041304    -0.284777  KCAL/ANGSTROM
    428        143  H    CARTESIAN Y   -14.866343     0.035804  KCAL/ANGSTROM
    429        143  H    CARTESIAN Z     0.832366     0.253512  KCAL/ANGSTROM
    430        144  H    CARTESIAN X    10.955777    -0.311726  KCAL/ANGSTROM
    431        144  H    CARTESIAN Y   -17.413738     0.319224  KCAL/ANGSTROM
    432        144  H    CARTESIAN Z    -0.961055    -0.148513  KCAL/ANGSTROM
    433        145  H    CARTESIAN X     8.528237     0.196125  KCAL/ANGSTROM
    434        145  H    CARTESIAN Y   -16.703109     0.384377  KCAL/ANGSTROM
    435        145  H    CARTESIAN Z     0.799284    -0.121739  KCAL/ANGSTROM
    436        146  H    CARTESIAN X    10.306912     0.059043  KCAL/ANGSTROM
    437        146  H    CARTESIAN Y   -16.591914    -0.305924  KCAL/ANGSTROM
    438        146  H    CARTESIAN Z    -3.813170    -0.282575  KCAL/ANGSTROM
    439        147  H    CARTESIAN X     6.427465     0.447018  KCAL/ANGSTROM
    440        147  H    CARTESIAN Y   -15.334301     0.037025  KCAL/ANGSTROM
    441        147  H    CARTESIAN Z    -0.964933    -0.130219  KCAL/ANGSTROM
    442        148  H    CARTESIAN X     7.482997    -0.436133  KCAL/ANGSTROM
    443        148  H    CARTESIAN Y   -15.339400    -0.718643  KCAL/ANGSTROM
    444        148  H    CARTESIAN Z    -3.819205    -0.488854  KCAL/ANGSTROM
    445        149  H    CARTESIAN X     8.175734     0.337257  KCAL/ANGSTROM
    446        149  H    CARTESIAN Y   -17.514346     0.992120  KCAL/ANGSTROM
    447        149  H    CARTESIAN Z    -1.994298     0.007136  KCAL/ANGSTROM
    448        150  C    CARTESIAN X    16.710798    -0.060233  KCAL/ANGSTROM
    449        150  C    CARTESIAN Y    -2.335540     0.319657  KCAL/ANGSTROM
    450        150  C    CARTESIAN Z    -1.629709    -0.147804  KCAL/ANGSTROM
    451        151  B    CARTESIAN X    16.728779     0.067323  KCAL/ANGSTROM
    452        151  B    CARTESIAN Y    -1.691937     0.596699  KCAL/ANGSTROM
    453        151  B    CARTESIAN Z    -3.238764     0.457731  KCAL/ANGSTROM
    454        152  B    CARTESIAN X    15.542444     0.091365  KCAL/ANGSTROM
    455        152  B    CARTESIAN Y    -0.973312    -0.117231  KCAL/ANGSTROM
    456        152  B    CARTESIAN Z    -2.048462     0.101638  KCAL/ANGSTROM
    457        153  B    CARTESIAN X    18.327690     0.284801  KCAL/ANGSTROM
    458        153  B    CARTESIAN Y    -2.041409    -0.191395  KCAL/ANGSTROM
    459        153  B    CARTESIAN Z    -2.437901     0.284421  KCAL/ANGSTROM
    460        154  B    CARTESIAN X    16.355783    -0.412040  KCAL/ANGSTROM
    461        154  B    CARTESIAN Y    -1.029680     0.361756  KCAL/ANGSTROM
    462        154  B    CARTESIAN Z    -0.462853     0.029112  KCAL/ANGSTROM
    463        155  B    CARTESIAN X    18.060945     0.759904  KCAL/ANGSTROM
    464        155  B    CARTESIAN Y    -1.695636     0.030537  KCAL/ANGSTROM
    465        155  B    CARTESIAN Z    -0.696824     0.088875  KCAL/ANGSTROM
    466        156  B    CARTESIAN X    17.770338    -0.288068  KCAL/ANGSTROM
    467        156  B    CARTESIAN Y     0.056006    -0.953076  KCAL/ANGSTROM
    468        156  B    CARTESIAN Z    -0.506810     0.007169  KCAL/ANGSTROM
    469        157  B    CARTESIAN X    18.954732     0.737371  KCAL/ANGSTROM
    470        157  B    CARTESIAN Y    -0.527567     0.150998  KCAL/ANGSTROM
    471        157  B    CARTESIAN Z    -1.746434     0.202117  KCAL/ANGSTROM
    472        158  B    CARTESIAN X    16.259169     0.852625  KCAL/ANGSTROM
    473        158  B    CARTESIAN Y     0.518099    -0.375356  KCAL/ANGSTROM
    474        158  B    CARTESIAN Z    -1.385852    -0.605332  KCAL/ANGSTROM
    475        159  B    CARTESIAN X    18.127132     0.170241  KCAL/ANGSTROM
    476        159  B    CARTESIAN Y    -0.545706    -0.001489  KCAL/ANGSTROM
    477        159  B    CARTESIAN Z    -3.362171    -0.649159  KCAL/ANGSTROM
    478        160  B    CARTESIAN X    16.448127     0.035724  KCAL/ANGSTROM
    479        160  B    CARTESIAN Y     0.090193    -0.273700  KCAL/ANGSTROM
    480        160  B    CARTESIAN Z    -3.132499     0.481020  KCAL/ANGSTROM
    481        161  C    CARTESIAN X    17.805244     0.410761  KCAL/ANGSTROM
    482        161  C    CARTESIAN Y     0.719931     0.519364  KCAL/ANGSTROM
    483        161  C    CARTESIAN Z    -2.168908     0.231353  KCAL/ANGSTROM
    484        162  H    CARTESIAN X    16.345494    -0.149168  KCAL/ANGSTROM
    485        162  H    CARTESIAN Y    -2.348021    -0.214837  KCAL/ANGSTROM
    486        162  H    CARTESIAN Z    -4.187682    -0.479480  KCAL/ANGSTROM
    487        163  H    CARTESIAN X    14.347040    -0.231025  KCAL/ANGSTROM
    488        163  H    CARTESIAN Y    -1.173948     0.249891  KCAL/ANGSTROM
    489        163  H    CARTESIAN Z    -2.137271     0.164299  KCAL/ANGSTROM
    490        164  H    CARTESIAN X    19.017753    -0.349932  KCAL/ANGSTROM
    491        164  H    CARTESIAN Y    -2.973565     0.000081  KCAL/ANGSTROM
    492        164  H    CARTESIAN Z    -2.793635     0.146978  KCAL/ANGSTROM
    493        165  H    CARTESIAN X    15.714577    -0.367114  KCAL/ANGSTROM
    494        165  H    CARTESIAN Y    -1.249881    -0.003383  KCAL/ANGSTROM
    495        165  H    CARTESIAN Z     0.543493    -0.144609  KCAL/ANGSTROM
    496        166  H    CARTESIAN X    18.604717    -0.188929  KCAL/ANGSTROM
    497        166  H    CARTESIAN Y    -2.362436     0.402768  KCAL/ANGSTROM
    498        166  H    CARTESIAN Z     0.159139    -0.364886  KCAL/ANGSTROM
    499        167  H    CARTESIAN X    18.148416     0.053703  KCAL/ANGSTROM
    500        167  H    CARTESIAN Y     0.689750     0.022454  KCAL/ANGSTROM
    501        167  H    CARTESIAN Z     0.456726     0.160143  KCAL/ANGSTROM
    502        168  H    CARTESIAN X    20.139455    -0.299937  KCAL/ANGSTROM
    503        168  H    CARTESIAN Y    -0.298449    -0.010908  KCAL/ANGSTROM
    504        168  H    CARTESIAN Z    -1.626694     0.261219  KCAL/ANGSTROM
    505        169  H    CARTESIAN X    15.591752     0.034453  KCAL/ANGSTROM
    506        169  H    CARTESIAN Y     1.466998     0.365124  KCAL/ANGSTROM
    507        169  H    CARTESIAN Z    -1.031011    -0.065693  KCAL/ANGSTROM
    508        170  H    CARTESIAN X    18.723222     0.089947  KCAL/ANGSTROM
    509        170  H    CARTESIAN Y    -0.323877     0.218834  KCAL/ANGSTROM
    510        170  H    CARTESIAN Z    -4.395738    -0.287271  KCAL/ANGSTROM
    511        171  H    CARTESIAN X    15.913949    -0.268734  KCAL/ANGSTROM
    512        171  H    CARTESIAN Y     0.736923     0.357731  KCAL/ANGSTROM
    513        171  H    CARTESIAN Z    -4.010178    -0.296948  KCAL/ANGSTROM
    514        172  H    CARTESIAN X    18.175207    -0.295843  KCAL/ANGSTROM
    515        172  H    CARTESIAN Y     1.742543    -0.585990  KCAL/ANGSTROM
    516        172  H    CARTESIAN Z    -2.351522    -0.009228  KCAL/ANGSTROM




   ATOM   CHEMICAL          X               Y               Z
  NUMBER   SYMBOL      (ANGSTROMS)     (ANGSTROMS)     (ANGSTROMS)
 
     1       C         -0.32156792  *  -1.71071144  *  -0.07015957  *
     2       C         -1.11306180  *  -0.53929793  *   0.02548273  *
     3       C         -0.54884995  *   0.69203168  *  -0.22890125  *
     4       C          0.81581505  *   0.80113452  *  -0.59111215  *
     5       C          1.60141209  *  -0.38431161  *  -0.72757965  *
     6       C          1.02606280  *  -1.62850206  *  -0.46537096  *
     7       C         -0.88066429  *  -2.93045746  *   0.24744972  *
     8       C         -1.36914077  *  -4.05422701  *   0.58914081  *
     9       C         -1.83326557  *  -5.18065628  *   0.92504617  *
    10       C          1.39454029  *   2.02808385  *  -0.80076356  *
    11       C          2.12674786  *   3.02971629  *  -1.03181427  *
    12       C          2.85075510  *   4.04784495  *  -1.26276658  *
    13       C          2.94820394  *  -0.27920466  *  -1.11542690  *
    14       C          4.11254870  *  -0.13126336  *  -1.44099980  *
    15       C          5.45931181  *   0.09802838  *  -1.78450286  *
    16       C          5.93878599  *   1.41871269  *  -1.80098583  *
    17       C          7.28501157  *   1.67074956  *  -2.04057334  *
    18       C          8.14666327  *   0.60675243  *  -2.30040505  *
    19       C          7.65996809  *  -0.70298022  *  -2.41505789  *
    20       C          6.32599040  *  -0.96072051  *  -2.08804397  *
    21       S          9.89486085  *   0.89753771  *  -2.37325613  *
    22       C         10.49929437  *  -0.61721869  *  -1.67532352  *
    23       C          9.77761319  *  -1.79820390  *  -1.89502449  *
    24       C          8.59772008  *  -1.77620349  *  -2.77642033  *
    25       C         11.67949976  *  -0.63085929  *  -0.93469418  *
    26       C         12.18411972  *  -1.84115825  *  -0.46109116  *
    27       C         11.48129063  *  -3.02948902  *  -0.69714383  *
    28       C         10.23416139  *  -2.99069750  *  -1.34153647  *
    29       C          8.48215757  *  -2.63366965  *  -3.80485647  *
    30       C          7.38376755  *  -2.80119695  *  -4.85117879  *
    31       C          7.05871360  *  -4.32437357  *  -4.66708956  *
    32       C          8.42156038  *  -4.88348758  *  -4.37783348  *
    33       C          9.29791889  *  -3.86018496  *  -4.02196843  *
    34       C          8.84034846  *  -6.21788463  *  -4.49639697  *
    35       C         10.17373313  *  -6.50120080  *  -4.31773601  *
    36       C         11.11467078  *  -5.46097888  *  -4.09840350  *
    37       C         10.68799989  *  -4.11104011  *  -3.99089061  *
    38       C         12.50420874  *  -5.75847674  *  -4.02152247  *
    39       C         13.42597937  *  -4.74981294  *  -3.92623531  *
    40       C         13.00307066  *  -3.39558204  *  -3.91618917  *
    41       C         11.66985928  *  -3.08346217  *  -3.93993731  *
    42       C          6.15243798  *  -1.92096565  *  -4.85100667  *
    43       C         12.04125153  *  -4.29876062  *  -0.46089224  *
    44       C         12.49309760  *  -5.42996425  *  -0.42665012  *
    45       C         13.01330887  *  -6.73277170  *  -0.51727269  *
    46       C         14.40559812  *  -6.93365113  *  -0.75860689  *
    47       C         14.91868030  *  -8.24833031  *  -0.87193316  *
    48       C         14.07482220  *  -9.33233285  *  -0.82181421  *
    49       C         12.68013564  *  -9.12910298  *  -0.64334780  *
    50       C         12.16204443  *  -7.83714096  *  -0.45731541  *
    51       C         11.86933620  * -10.24068691  *  -0.69537192  *
    52       C         11.18685549  * -11.30109699  *  -0.84896984  *
    53       C         10.57132486  * -12.39384206  *  -1.01142549  *
    54       C         15.22440173  *  -5.85859110  *  -0.95716684  *
    55       C         15.73504391  *  -4.71908790  *  -1.16069404  *
    56       C         16.25003120  *  -3.58579162  *  -1.39564438  *
    57       H         -2.16133775  *  -0.62270369  *   0.30849447  *
    58       H         -1.14432424  *   1.60651481  *  -0.14699911  *
    59       H          1.62301309  *  -2.53460194  *  -0.56151612  *
    60       H          5.24876890  *   2.23936055  *  -1.59325343  *
    61       H          7.65446009  *   2.69912215  *  -2.00223808  *
    62       H          5.96528533  *  -1.98779933  *  -2.06083489  *
    63       H         12.22579955  *   0.29326705  *  -0.73177935  *
    64       H         13.12444361  *  -1.87010771  *   0.08938446  *
    65       H          9.65483722  *  -3.90628699  *  -1.45987506  *
    66       H          7.88879984  *  -2.66958713  *  -5.84951592  *
    67       H          6.58514408  *  -4.76638516  *  -5.55212322  *
    68       H          6.36607429  *  -4.47661398  *  -3.82061025  *
    69       H          8.11810835  *  -6.99366550  *  -4.72551706  *
    70       H         10.53167719  *  -7.52818539  *  -4.37549181  *
    71       H         12.81665408  *  -6.79976402  *  -4.05701068  *
    72       H         14.49169470  *  -4.96776444  *  -3.86770712  *
    73       H         13.75613676  *  -2.61077145  *  -3.89848239  *
    74       H         11.33725039  *  -2.04398804  *  -3.93619957  *
    75       H          5.45126974  *  -2.17427468  *  -4.05316329  *
    76       H          5.60831125  *  -2.02154465  *  -5.79591606  *
    77       H          6.42300854  *  -0.85914629  *  -4.74602650  *
    78       H         15.99554065  *  -8.38032296  *  -1.02822762  *
    79       H         14.45981950  * -10.34415809  *  -0.92926534  *
    80       H         11.09514432  *  -7.69368130  *  -0.29322303  *
    81       C         -2.29061471  *  -6.42416743  *   1.27300584  *
    82       B         -3.83624707  *  -6.64809096  *   2.04470492  *
    83       B         -3.60636010  *  -7.22529708  *   0.32934775  *
    84       B         -2.32996927  *  -6.95554754  *   3.01111341  *
    85       B         -1.91056488  *  -7.79969020  *   0.19813389  *
    86       B         -1.11825053  *  -7.60320443  *   1.84421625  *
    87       B         -1.69158533  *  -9.20475676  *   1.27568565  *
    88       B         -1.98235899  *  -8.70189790  *   2.98845515  *
    89       B         -3.24822694  *  -8.98178785  *   0.37301868  *
    90       B         -3.68914764  *  -8.09728205  *   3.12063100  *
    91       B         -4.46515317  *  -8.25228109  *   1.49808946  *
    92       C         -3.27150511  *  -9.44379085  *   2.05879318  *
    93       H         -4.57252492  *  -5.71638707  *   2.30266234  *
    94       H         -4.15762748  *  -6.67195554  *  -0.60219939  *
    95       H         -1.99857422  *  -6.21447485  *   3.91494927  *
    96       H         -1.28214074  *  -7.65693289  *  -0.83271152  *
    97       H          0.06278815  *  -7.33889206  *   1.96420525  *
    98       H         -0.94855870  * -10.13074849  *   1.02228477  *
    99       H         -1.44098169  *  -9.28297158  *   3.90799671  *
   100       H         -3.58076719  *  -9.74985957  *  -0.50870622  *
   101       H         -4.34404499  *  -8.26721454  *   4.12976068  *
   102       H         -5.64737162  *  -8.51624619  *   1.40477449  *
   103       H         -3.60339231  * -10.46436230  *   2.32658708  *
   104       C          3.57767861  *   5.16384963  *  -1.50797650  *
   105       B          4.89052630  *   5.16199660  *  -2.75404507  *
   106       B          3.30991322  *   6.06718660  *  -2.97482981  *
   107       B          5.31999563  *   5.27502931  *  -1.02520312  *
   108       B          2.79768158  *   6.84206596  *  -1.42236134  *
   109       B          3.99167900  *   6.24294367  *  -0.20794386  *
   110       B          4.07712907  *   7.92820497  *  -0.87429935  *
   111       B          5.58830145  *   6.97677745  *  -0.60212279  *
   112       B          3.64339379  *   7.81492699  *  -2.63219199  *
   113       B          6.12742189  *   6.34598067  *  -2.21420428  *
   114       B          4.88420262  *   6.79021523  *  -3.45501783  *
   115       C          5.32168462  *   7.88642362  *  -2.11733235  *
   116       H          5.13676460  *   4.16090743  *  -3.39709260  *
   117       H          2.48831000  *   5.70613308  *  -3.79205092  *
   118       H          5.87213010  *   4.35537978  *  -0.45719669  *
   119       H          1.62511734  *   6.97282236  *  -1.13584522  *
   120       H          3.64889358  *   6.00566458  *   0.93363718  *
   121       H          3.85296027  *   8.92356555  *  -0.21705121  *
   122       H          6.38687226  *   7.32787301  *   0.24072933  *
   123       H          3.10827647  *   8.72904125  *  -3.22598251  *
   124       H          7.30407343  *   6.25100494  *  -2.49806076  *
   125       H          5.18874129  *   7.01281713  *  -4.61004447  *
   126       H          5.90738897  *   8.79999299  *  -2.32357574  *
   127       C          9.95825870  * -13.59746565  *  -1.23575763  *
   128       B          8.32680247  * -13.69587950  *  -1.86732625  *
   129       B          9.69436899  * -14.17401742  *  -2.94034769  *
   130       B          8.68864237  * -14.21699017  *  -0.14953102  *
   131       B         10.95483756  * -14.89548649  *  -1.84602940  *
   132       B         10.31261325  * -14.98328021  *  -0.13303389  *
   133       B         10.28560187  * -16.42496777  *  -1.17749872  *
   134       B          8.85311304  * -16.01065255  *  -0.14350596  *
   135       B          9.89887606  * -15.93603226  *  -2.87452817  *
   136       B          7.61362684  * -15.19712584  *  -1.18279176  *
   137       B          8.23974606  * -15.19580385  *  -2.87815727  *
   138       C          8.62750105  * -16.52546089  *  -1.80181944  *
   139       H          7.66153874  * -12.70566609  *  -2.09989801  *
   140       H         10.00185922  * -13.50152274  *  -3.90440574  *
   141       H          8.28625316  * -13.57794827  *   0.80402246  *
   142       H         12.14109228  * -14.75831532  *  -2.07242667  *
   143       H         11.04130403  * -14.86634318  *   0.83236584  *
   144       H         10.95577686  * -17.41373758  *  -0.96105545  *
   145       H          8.52823657  * -16.70310872  *   0.79928366  *
   146       H         10.30691233  * -16.59191399  *  -3.81317039  *
   147       H          6.42746482  * -15.33430073  *  -0.96493289  *
   148       H          7.48299655  * -15.33939953  *  -3.81920526  *
   149       H          8.17573382  * -17.51434613  *  -1.99429847  *
   150       C         16.71079829  *  -2.33553979  *  -1.62970887  *
   151       B         16.72877929  *  -1.69193728  *  -3.23876410  *
   152       B         15.54244424  *  -0.97331180  *  -2.04846177  *
   153       B         18.32769016  *  -2.04140946  *  -2.43790123  *
   154       B         16.35578270  *  -1.02967972  *  -0.46285302  *
   155       B         18.06094514  *  -1.69563557  *  -0.69682397  *
   156       B         17.77033809  *   0.05600635  *  -0.50680982  *
   157       B         18.95473157  *  -0.52756746  *  -1.74643360  *
   158       B         16.25916865  *   0.51809942  *  -1.38585217  *
   159       B         18.12713249  *  -0.54570578  *  -3.36217085  *
   160       B         16.44812692  *   0.09019308  *  -3.13249877  *
   161       C         17.80524405  *   0.71993092  *  -2.16890842  *
   162       H         16.34549391  *  -2.34802083  *  -4.18768171  *
   163       H         14.34704000  *  -1.17394795  *  -2.13727098  *
   164       H         19.01775341  *  -2.97356476  *  -2.79363525  *
   165       H         15.71457701  *  -1.24988148  *   0.54349265  *
   166       H         18.60471678  *  -2.36243608  *   0.15913938  *
   167       H         18.14841629  *   0.68975040  *   0.45672606  *
   168       H         20.13945460  *  -0.29844852  *  -1.62669438  *
   169       H         15.59175237  *   1.46699783  *  -1.03101133  *
   170       H         18.72322160  *  -0.32387705  *  -4.39573804  *
[...]
   4.61370   4.62227   4.63729   4.64943   4.65366   4.66315   4.67562   4.74144
   4.80751   4.81922   4.82952   4.84999   4.88399   4.89384   4.90779   4.92446
   4.93372   4.96254   4.99623   5.02447   5.07609   5.07993   5.08836   5.09505
   5.10118   5.11584   5.12404   5.12974   5.14740   5.15070   5.16060   5.17386
   5.21261   5.24088   5.24296   5.24981   5.25451   5.32975   5.34991   5.36322
   5.40328   5.41355   5.45311   5.46231   5.46959   5.47261   5.47453   5.48222
   5.49454   5.50997   5.63022   5.67842   5.68816   5.70540   5.71979   5.73207
   5.75912   5.76813   5.81123   5.83783   5.87394   5.88915   5.89331   5.89465
   5.89873   5.90149   5.90803   5.97137   5.99196   5.99872   6.01923   6.03840
   6.04331   6.04460   6.06073   6.09206   6.09280   6.10009   6.14448   6.24312
   6.26632   6.28209   6.29247   6.30726   6.31993   6.32812   6.36439   6.44773
   6.89852


              NET ATOMIC CHARGES AND DIPOLE CONTRIBUTIONS

  ATOM NO.   TYPE          CHARGE      No. of ELECS.   s-Pop       p-Pop       d-Pop       
    1          C           0.141852        3.8581     1.05314     2.80501
    2          C          -0.258741        4.2587     1.07197     3.18677
    3          C           0.012348        3.9877     1.10047     2.88718
    4          C          -0.112020        4.1120     1.03230     3.07972
    5          C           0.208283        3.7917     1.06024     2.73147
    6          C          -0.265161        4.2652     1.07255     3.19261
    7          C           0.049389        3.9506     1.10885     2.84176
    8          C          -0.027005        4.0270     1.04632     2.98069
    9          C          -0.001139        4.0011     1.08378     2.91736
   10          C           0.019742        3.9803     1.09522     2.88503
   11          C          -0.012060        4.0121     1.04716     2.96490
   12          C          -0.113421        4.1134     1.06792     3.04550
   13          C          -0.166872        4.1669     1.07893     3.08794
   14          C           0.040000        3.9600     1.10183     2.85817
   15          C          -0.020650        4.0207     1.03867     2.98198
   16          C          -0.094116        4.0941     1.08897     3.00515
   17          C          -0.131580        4.1316     1.08272     3.04886
   18          C          -0.086987        4.0870     1.09532     2.99167
   19          C          -0.003034        4.0030     1.06096     2.94207
   20          C          -0.123368        4.1234     1.08766     3.03571
   21          S           0.102262        5.8977     1.88703     3.89607     0.11464
   22          C          -0.077401        4.0774     1.09258     2.98482
   23          C          -0.018408        4.0184     1.06125     2.95716
   24          C          -0.101888        4.1019     1.05291     3.04898
   25          C          -0.134415        4.1344     1.08166     3.05276
   26          C          -0.092884        4.0929     1.08655     3.00633
   27          C          -0.008927        4.0089     1.03886     2.97007
   28          C          -0.115332        4.1153     1.08982     3.02552
   29          C           0.040052        3.9599     1.09042     2.86953
   30          C          -0.078492        4.0785     1.06554     3.01296
   31          C          -0.289403        4.2894     1.06568     3.22372
   32          C           0.013932        3.9861     1.07675     2.90932
   33          C          -0.089410        4.0894     1.07212     3.01729
   34          C          -0.183688        4.1837     1.07775     3.10593
   35          C          -0.131793        4.1318     1.08710     3.04470
   36          C          -0.025699        4.0257     1.06216     2.96354
   37          C           0.007649        3.9924     1.06158     2.93077
   38          C          -0.164616        4.1646     1.08388     3.08074
   39          C          -0.131955        4.1320     1.08451     3.04745
   40          C          -0.117960        4.1180     1.08435     3.03362
   41          C          -0.150320        4.1503     1.08580     3.06452
   42          C          -0.455648        4.4556     1.05256     3.40309
   43          C           0.054349        3.9457     1.10286     2.84280
   44          C          -0.170940        4.1709     1.07759     3.09335
   45          C           0.224802        3.7752     1.06124     2.71396
   46          C          -0.115523        4.1155     1.03074     3.08478
   47          C           0.013554        3.9864     1.10040     2.88605
   48          C          -0.265854        4.2659     1.07160     3.19425
   49          C           0.146219        3.8538     1.05335     2.80043
   50          C          -0.264335        4.2643     1.07236     3.19198
   51          C           0.050853        3.9491     1.10918     2.83997
   52          C          -0.029055        4.0291     1.04675     2.98231
   53          C          -0.004414        4.0044     1.08426     2.92015
   54          C           0.013634        3.9864     1.09577     2.89060
   55          C          -0.006435        4.0064     1.04801     2.95843
   56          C          -0.118832        4.1188     1.06589     3.05294
   57          H           0.171242        0.8288     0.82876
   58          H           0.169876        0.8301     0.83012
   59          H           0.179452        0.8205     0.82055
   60          H           0.173237        0.8268     0.82676
   61          H           0.178105        0.8219     0.82190
   62          H           0.165668        0.8343     0.83433
   63          H           0.174609        0.8254     0.82539
   64          H           0.169675        0.8303     0.83032
   65          H           0.170339        0.8297     0.82966
   66          H           0.158261        0.8417     0.84174
   67          H           0.150698        0.8493     0.84930
   68          H           0.157272        0.8427     0.84273
   69          H           0.155553        0.8444     0.84445
   70          H           0.151395        0.8486     0.84861
   71          H           0.146814        0.8532     0.85319
   72          H           0.155501        0.8445     0.84450
   73          H           0.159081        0.8409     0.84092
   74          H           0.169908        0.8301     0.83009
   75          H           0.149668        0.8503     0.85033
   76          H           0.148805        0.8512     0.85119
   77          H           0.163780        0.8362     0.83622
   78          H           0.168285        0.8317     0.83172
   79          H           0.169318        0.8307     0.83068
   80          H           0.182724        0.8173     0.81728
   81          C          -0.011746        4.0117     1.05209     2.95966
   82          B          -0.185279        3.1853     0.56870     2.61657
   83          B          -0.178886        3.1789     0.57305     2.60584
   84          B          -0.175754        3.1758     0.57424     2.60151
   85          B          -0.185348        3.1853     0.57124     2.61410
   86          B          -0.187677        3.1877     0.56909     2.61859
   87          B          -0.169209        3.1692     0.57344     2.59577
   88          B          -0.162767        3.1628     0.57425     2.58852
   89          B          -0.164484        3.1645     0.57390     2.59058
   90          B          -0.164733        3.1647     0.57417     2.59056
   91          B          -0.166971        3.1670     0.57358     2.59340
   92          C          -0.176157        4.1762     1.09151     3.08465
   93          H           0.171494        0.8285     0.82851
   94          H           0.174187        0.8258     0.82581
   95          H           0.175722        0.8243     0.82428
   96          H           0.172418        0.8276     0.82758
   97          H           0.172302        0.8277     0.82770
   98          H           0.170406        0.8296     0.82959
   99          H           0.170715        0.8293     0.82928
  100          H           0.170514        0.8295     0.82949
  101          H           0.170752        0.8292     0.82925
  102          H           0.171257        0.8287     0.82874
  103          H           0.210785        0.7892     0.78921
  104          C           0.068532        3.9315     1.04891     2.88256
  105          B          -0.202083        3.2021     0.57003     2.63205
  106          B          -0.225193        3.2252     0.56267     2.66252
  107          B          -0.201640        3.2016     0.57002     2.63162
  108          B          -0.195772        3.1958     0.57340     2.62237
  109          B          -0.224789        3.2248     0.56240     2.66239
  110          B          -0.179904        3.1799     0.57385     2.60606
  111          B          -0.182064        3.1821     0.57307     2.60900
  112          B          -0.179669        3.1797     0.57378     2.60589
  113          B          -0.173915        3.1739     0.57465     2.59926
  114          B          -0.184607        3.1846     0.57229     2.61232
  115          C          -0.165854        4.1659     1.08981     3.07604
  116          H           0.170591        0.8294     0.82941
  117          H           0.169725        0.8303     0.83028
  118          H           0.168667        0.8313     0.83133
  119          H           0.172555        0.8274     0.82745
  120          H           0.170448        0.8296     0.82955
  121          H           0.168439        0.8316     0.83156
  122          H           0.166476        0.8335     0.83352
  123          H           0.168624        0.8314     0.83138
  124          H           0.164358        0.8356     0.83564
  125          H           0.167405        0.8326     0.83259
  126          H           0.204412        0.7956     0.79559
  127          C          -0.012390        4.0124     1.05175     2.96064
  128          B          -0.185761        3.1858     0.56923     2.61653
  129          B          -0.179855        3.1799     0.57383     2.60603
  130          B          -0.179270        3.1793     0.57156     2.60771
  131          B          -0.192256        3.1923     0.56787     2.62439
  132          B          -0.177232        3.1772     0.57354     2.60370
  133          B          -0.166953        3.1670     0.57373     2.59322
  134          B          -0.163413        3.1634     0.57415     2.58926
  135          B          -0.164213        3.1642     0.57405     2.59016
  136          B          -0.168557        3.1686     0.57343     2.59513
  137          B          -0.164169        3.1642     0.57413     2.59004
  138          C          -0.175803        4.1758     1.09141     3.08439
  139          H           0.171721        0.8283     0.82828
  140          H           0.174131        0.8259     0.82587
  141          H           0.174494        0.8255     0.82551
  142          H           0.170078        0.8299     0.82992
  143          H           0.174523        0.8255     0.82548
  144          H           0.171442        0.8286     0.82856
  145          H           0.170603        0.8294     0.82940
  146          H           0.171663        0.8283     0.82834
  147          H           0.170678        0.8293     0.82932
  148          H           0.170572        0.8294     0.82943
  149          H           0.210459        0.7895     0.78954
  150          C           0.073113        3.9269     1.04837     2.87852
  151          B          -0.226781        3.2268     0.56191     2.66487
  152          B          -0.199272        3.1993     0.57187     2.62740
  153          B          -0.193786        3.1938     0.57272     2.62106
  154          B          -0.210007        3.2100     0.56751     2.64250
  155          B          -0.221132        3.2211     0.56446     2.65667
  156          B          -0.190900        3.1909     0.57211     2.61879
  157          B          -0.178237        3.1782     0.57475     2.60348
  158          B          -0.177049        3.1770     0.57407     2.60297
  159          B          -0.183483        3.1835     0.57362     2.60986
  160          B          -0.179270        3.1793     0.57366     2.60561
  161          C          -0.167641        4.1676     1.08984     3.07780
  162          H           0.168911        0.8311     0.83109
  163          H           0.175193        0.8248     0.82481
  164          H           0.171917        0.8281     0.82808
  165          H           0.166904        0.8331     0.83310
  166          H           0.170603        0.8294     0.82940
  167          H           0.167414        0.8326     0.83259
  168          H           0.168120        0.8319     0.83188
  169          H           0.163158        0.8368     0.83684
  170          H           0.166587        0.8334     0.83341
  171          H           0.166748        0.8333     0.83325
  172          H           0.203709        0.7963     0.79629
 DIPOLE           X         Y         Z       TOTAL
 POINT-CHG.    -7.846   -14.134     1.039    16.199
 HYBRID        -0.972    -1.131     0.294     1.520
 SUM           -8.818   -15.265     1.333    17.679


          ATOMIC ORBITAL ELECTRON POPULATIONS

     Atom    s        px        py        pz      x^2-y^2     xz        z^2       yz        xy
    1  C   1.05314   0.97375   0.94099   0.89026
    2  C   1.07197   1.09000   0.96929   1.12748
    3  C   1.10047   0.99394   1.04233   0.85091
    4  C   1.03230   0.98484   0.95580   1.13908
    5  C   1.06024   0.93117   0.96192   0.83839
    6  C   1.07255   0.99712   1.07296   1.12254
    7  C   1.10885   0.62830   0.86942   1.34404
    8  C   1.04632   1.08614   0.98449   0.91005
    9  C   1.08378   0.67015   0.89582   1.35138
   10  C   1.09522   1.20762   1.06837   0.60905
   11  C   1.04716   0.91369   0.95055   1.10067
   12  C   1.06792   1.26340   1.13034   0.65177
   13  C   1.07893   0.97949   1.04177   1.06669
   14  C   1.10183   0.96377   0.97529   0.91911
   15  C   1.03867   0.93900   0.99423   1.04874
   16  C   1.08897   1.01708   1.02413   0.96394
   17  C   1.08272   0.98943   1.06796   0.99147
   18  C   1.09532   0.97810   0.99713   1.01644
   19  C   1.06096   0.97469   0.96666   1.00072
   20  C   1.08766   0.98480   1.07190   0.97901
   21  S   1.88703   0.93764   1.20154   1.75690   0.04364   0.01072   0.01978   0.01919   0.02131
   22  C   1.09258   1.00768   0.96882   1.00832
   23  C   1.06125   0.98050   0.97927   0.99739
   24  C   1.05291   1.00367   1.03219   1.01312
   25  C   1.08166   1.00301   1.06300   0.98675
   26  C   1.08655   1.05130   0.96272   0.99231
   27  C   1.03886   0.98791   0.94811   1.03405
   28  C   1.08982   0.99992   1.05682   0.96877
   29  C   1.09042   0.97207   0.93812   0.95933
   30  C   1.06554   0.98249   0.95954   1.07093
   31  C   1.06568   1.04260   1.02035   1.16077
   32  C   1.07675   0.97692   0.97164   0.96076
   33  C   1.07212   0.98199   0.98819   1.04710
   34  C   1.07775   1.03156   1.03481   1.03957
   35  C   1.08710   0.99322   1.06778   0.98370
   36  C   1.06216   0.97963   0.97423   1.00967
   37  C   1.06158   0.96457   0.98252   0.98368
   38  C   1.08388   0.98877   1.07556   1.01641
   39  C   1.08451   1.07311   0.98880   0.98554
   40  C   1.08435   1.02636   1.02938   0.97788
   41  C   1.08580   0.99103   1.07248   1.00101
   42  C   1.05256   1.08050   1.14120   1.18139
   43  C   1.10286   0.97260   0.96679   0.90340
   44  C   1.07759   1.03577   0.97899   1.07859
   45  C   1.06124   0.95643   0.93968   0.81785
   46  C   1.03074   0.96777   0.97059   1.14643
   47  C   1.10040   1.07288   0.96806   0.84511
   48  C   1.07160   0.96855   1.09192   1.13378
   49  C   1.05335   0.96615   0.95096   0.88333
   50  C   1.07236   1.10295   0.95478   1.13426
   51  C   1.10918   0.63032   0.82829   1.38136
   52  C   1.04675   1.08473   0.99412   0.90347
   53  C   1.08426   0.63496   0.88765   1.39754
   54  C   1.09577   1.22636   1.06109   0.60316
   55  C   1.04801   0.92990   0.92960   1.09892
   56  C   1.06589   1.34567   1.03179   0.67548
   57  H   0.82876
   58  H   0.83012
   59  H   0.82055
   60  H   0.82676
   61  H   0.82190
   62  H   0.83433
   63  H   0.82539
   64  H   0.83032
   65  H   0.82966
   66  H   0.84174
   67  H   0.84930
   68  H   0.84273
   69  H   0.84445
   70  H   0.84861
   71  H   0.85319
   72  H   0.84450
   73  H   0.84092
   74  H   0.83009
   75  H   0.85033
   76  H   0.85119
   77  H   0.83622
   78  H   0.83172
   79  H   0.83068
   80  H   0.81728
   81  C   1.05209   1.01882   0.98532   0.95552
   82  B   0.56870   0.82540   1.03354   0.75764
   83  B   0.57305   0.81161   0.82527   0.96896
   84  B   0.57424   0.78340   0.92954   0.88858
   85  B   0.57124   0.88692   0.71543   1.01176
   86  B   0.56909   1.12521   0.75327   0.74011
   87  B   0.57344   0.81983   1.02325   0.75269
   88  B   0.57425   0.76853   0.85377   0.96622
   89  B   0.57390   0.76624   0.93560   0.88874
   90  B   0.57417   0.87056   0.70427   1.01573
   91  B   0.57358   1.11921   0.72355   0.75064
   92  C   1.09151   0.98162   1.10844   0.99458
   93  H   0.82851
   94  H   0.82581
   95  H   0.82428
   96  H   0.82758
   97  H   0.82770
   98  H   0.82959
   99  H   0.82928
  100  H   0.82949
  101  H   0.82925
  102  H   0.82874
  103  H   0.78921
  104  C   1.04891   0.93266   0.95046   0.99944
  105  B   0.57003   0.66966   1.07802   0.88437
  106  B   0.56267   0.98106   0.76597   0.91549
  107  B   0.57002   0.72146   1.03817   0.87199
  108  B   0.57340   1.15715   0.69490   0.77033
  109  B   0.56240   0.83941   0.72769   1.09529
  110  B   0.57385   0.73516   1.05781   0.81308
  111  B   0.57307   0.95321   0.78512   0.87066
  112  B   0.57378   0.75415   1.00979   0.84195
  113  B   0.57465   1.13808   0.70467   0.75651
  114  B   0.57229   0.78453   0.74803   1.07976
  115  C   1.08981   1.02698   1.08348   0.96558
  116  H   0.82941
  117  H   0.83028
  118  H   0.83133
  119  H   0.82745
  120  H   0.82955
  121  H   0.83156
  122  H   0.83352
  123  H   0.83138
  124  H   0.83564
  125  H   0.83259
  126  H   0.79559
  127  C   1.05175   1.02080   0.98806   0.95177
  128  B   0.56923   0.79848   1.06939   0.74866
  129  B   0.57383   0.77411   0.90807   0.92385
  130  B   0.57156   0.78402   0.86169   0.96200
  131  B   0.56787   1.14292   0.71528   0.76619
  132  B   0.57354   0.92158   0.71677   0.96535
  133  B   0.57373   0.77997   1.06012   0.75314
  134  B   0.57415   0.77149   0.89552   0.92225
  135  B   0.57405   0.72976   0.88954   0.97085
  136  B   0.57343   1.13978   0.69704   0.75832
  137  B   0.57413   0.91297   0.70591   0.97116
  138  C   1.09141   0.99296   1.10073   0.99070
  139  H   0.82828
  140  H   0.82587
  141  H   0.82551
  142  H   0.82992
  143  H   0.82548
  144  H   0.82856
  145  H   0.82940
  146  H   0.82834
  147  H   0.82932
  148  H   0.82943
  149  H   0.78954
  150  C   1.04837   0.91879   0.96323   0.99650
  151  B   0.56191   0.84182   0.89164   0.93141
  152  B   0.57187   1.13682   0.71320   0.77738
  153  B   0.57272   0.79843   1.03362   0.78901
  154  B   0.56751   0.88564   0.70531   1.05155
  155  B   0.56446   0.74851   0.91710   0.99106
  156  B   0.57211   0.81866   0.88162   0.91850
  157  B   0.57475   1.12391   0.74982   0.72975
  158  B   0.57407   0.81339   1.03393   0.75565
  159  B   0.57362   0.85506   0.74029   1.01451
  160  B   0.57366   0.78063   0.87612   0.94885
  161  C   1.08984   1.00417   1.10718   0.96645
  162  H   0.83109
  163  H   0.82481
  164  H   0.82808
  165  H   0.83310
  166  H   0.82940
  167  H   0.83259
  168  H   0.83188
  169  H   0.83684
  170  H   0.83341
  171  H   0.83325
  172  H   0.79629

 **********************
 *                    *
 * JOB ENDED NORMALLY *
 *                    *
 **********************



 TOTAL JOB TIME:            28.50 SECONDS

 == MOPAC DONE ==
