 *******************************************************************************
 ** Site#: 9602  E-mail support: MrMOPAC@OpenMOPAC.net  Version 16.035L 64BITS**
 *******************************************************************************
 ** Cite this program as: MOPAC2016, Version: 16.035L, James J. P. Stewart,   **
 ** Stewart Computational Chemistry, web-site: HTTP://OpenMOPAC.net.          **
 *******************************************************************************
 **                                                                           **
 **                                MOPAC2016                                  **
 **                                                                           **
 *******************************************************************************

                              PM7 CALCULATION RESULTS


 *******************************************************************************
 *  CALCULATION DONE:                                Fri Apr 28 02:48:30 2017  *
 *  PM7        - The PM7 Hamiltonian to be used
 *
 *
 *
 *                 CHARGE ON SYSTEM = 0
 *
 *
 *
 *  BFGS       - USE THE BFGS GEOMETRY OPTIMIZER
 *  T=         - A TIME OF 172800.0 SECONDS REQUESTED
 *  DUMP=N     - RESTART FILE WRITTEN EVERY  7200.000 SECONDS
 *******************************************************************************
PM7 BFGS CHARGE=0
 chassi-G-1a-cd.xyz

   ATOM   CHEMICAL          X               Y               Z
  NUMBER   SYMBOL      (ANGSTROMS)     (ANGSTROMS)     (ANGSTROMS)
 
     1       C          5.49845000  *  -1.95025000  *   0.85395000  *
     2       C          4.72654000  *  -0.76556000  *   0.82240000  *
     3       C          3.33172000  *  -0.83847000  *   0.81374000  *
     4       C          2.67746000  *  -2.08459000  *   0.84679000  *
     5       C          3.41602000  *  -3.27345000  *   0.87655000  *
     6       C          4.83105000  *  -3.21690000  *   0.87546000  *
     7       C          2.75716000  *  -4.51961000  *   0.90282000  *
     8       C          3.47832000  *  -5.71245000  *   0.92251000  *
     9       C          4.88185000  *  -5.68311000  *   0.91379000  *
    10       C          5.53147000  *  -4.43340000  *   0.89351000  *
    11       C          6.90807000  *  -1.81706000  *   0.86282000  *
    12       C          7.54817000  *  -0.57098000  *   0.84457000  *
    13       C          6.73831000  *   0.60576000  *   0.81216000  *
    14       C          5.35553000  *   0.48686000  *   0.80010000  *
    15       N          2.58763000  *   0.29961000  *   0.76919000  *
    16       C          1.24065000  *   0.26338000  *   0.75531000  *
    17       C          0.58753000  *  -0.98285000  *   0.79911000  *
    18       N          1.32134000  *  -2.11761000  *   0.84353000  *
    19       C          0.50524000  *   1.44774000  *   0.69076000  *
    20       C         -0.88450000  *   1.37791000  *   0.66963000  *
    21       C         -1.52926000  *   0.12815000  *   0.72610000  *
    22       C         -0.79643000  *  -1.05099000  *   0.79036000  *
    23       N         -1.63340000  *   2.50545000  *   0.58970000  *
    24       C         -2.99297000  *   2.45283000  *   0.56392000  *
    25       C         -3.62955000  *   1.19961000  *   0.63421000  *
    26       N         -2.87187000  *   0.07700000  *   0.71305000  *
    27       C         -3.75712000  *   3.62477000  *   0.48098000  *
    28       C         -5.17422000  *   3.53722000  *   0.45950000  *
    29       C         -5.82051000  *   2.25889000  *   0.53662000  *
    30       C         -5.02121000  *   1.09660000  *   0.63548000  *
    31       C         -7.23193000  *   2.08915000  *   0.54659000  *
    32       C         -7.82937000  *   0.82516000  *   0.69417000  *
    33       C         -6.99457000  *  -0.31347000  *   0.81366000  *
    34       C         -5.61827000  *  -0.16691000  *   0.76052000  *
    35       C         -3.12437000  *   4.88386000  *   0.42632000  *
    36       C         -3.87078000  *   6.06010000  *   0.35562000  *
    37       C         -5.27401000  *   5.99952000  *   0.33550000  *
    38       C         -5.89848000  *   4.73646000  *   0.38457000  *
    39       C         -7.49187000  *  -1.65743000  *   0.99494000  *
    40       C         -3.17772000  *   7.32698000  *   0.30765000  *
    41       C         -7.93980000  *  -2.77610000  *   1.06631000  *
    42       C         -8.54193000  *  -4.10914000  *   1.07596000  *
    43       C         -2.61681000  *   8.39316000  *   0.26235000  *
    44       C         -1.94690000  *   9.69196000  *   0.20101000  *
    45       C          2.75737000  *  -6.96281000  *   0.94745000  *
    46       C          2.16863000  *  -8.01381000  *   0.97200000  *
    47       C          1.46170000  *  -9.29278000  *   1.00467000  *
    48       C          7.24357000  *   1.95972000  *   0.79445000  *
    49       C          7.72843000  *   3.06529000  *   0.78681000  *
    50       C          8.41865000  *   4.35378000  *   0.78436000  *
    51       C         18.61673000  * -11.67053000  *   0.71663000  *
    52       C         17.12573000  * -11.97443000  *   0.74598000  *
    53       C         16.31457000  * -10.68046000  *   0.74628000  *
    54       C         14.82233000  * -10.98990000  *   0.77533000  *
    55       C         14.01612000  *  -9.69748000  *   0.77502000  *
    56       C         12.52934000  * -10.01797000  *   0.80333000  *
    57       C         11.71852000  *  -8.73347000  *   0.80301000  *
    58       C         10.23502000  *  -9.06761000  *   0.83352000  *
    59       C          9.42655000  *  -7.78688000  *   0.83736000  *
    60       C          7.93605000  *  -8.10226000  *   0.87589000  *
    61       C          7.17899000  *  -6.79272000  *   0.88382000  *
    62       C          5.66384000  *  -6.98798000  *   0.92156000  *
    63       C         19.51010000  *   8.41902000  *   0.85081000  *
    64       C         19.03023000  *   6.97525000  *   0.86827000  *
    65       C         17.50280000  *   6.91017000  *   0.85210000  *
    66       C         17.04332000  *   5.45713000  *   0.87038000  *
    67       C         15.52159000  *   5.36376000  *   0.85458000  *
    68       C         15.11356000  *   3.89626000  *   0.87315000  *
    69       C         13.60298000  *   3.75242000  *   0.85611000  *
    70       C         13.23419000  *   2.27138000  *   0.87362000  *
    71       C         11.72916000  *   2.13663000  *   0.85298000  *
    72       C         11.28210000  *   0.67373000  *   0.87049000  *
    73       C          9.76828000  *   0.70097000  *   0.84841000  *
    74       C          9.07823000  *  -0.64326000  *   0.86495000  *
    75       C        -19.49809000  *  -8.34705000  *  -1.01897000  *
    76       C        -19.06180000  *  -6.90643000  *  -0.79158000  *
    77       C        -17.53652000  *  -6.80122000  *  -0.75153000  *
    78       C        -17.11343000  *  -5.35578000  *  -0.51061000  *
    79       C        -15.59233000  *  -5.23009000  *  -0.47788000  *
    80       C        -15.21201000  *  -3.77787000  *  -0.21364000  *
    81       C        -13.70311000  *  -3.58876000  *  -0.24620000  *
    82       C        -13.37032000  *  -2.12454000  *   0.03704000  *
    83       C        -11.89160000  *  -1.87728000  *  -0.18846000  *
    84       C        -11.48613000  *  -0.45877000  *   0.21766000  *
    85       C        -10.02245000  *  -0.21615000  *  -0.17231000  *
    86       C         -9.34510000  *   0.75188000  *   0.80595000  *
    87       C        -19.15515000  *  11.63019000  *  -0.08660000  *
    88       C        -17.67204000  *  11.97198000  *  -0.08771000  *
    89       C        -16.82848000  *  10.70102000  *  -0.01184000  *
    90       C        -15.34422000  *  11.04842000  *  -0.01333000  *
    91       C        -14.50529000  *   9.77905000  *   0.06276000  *
    92       C        -13.02681000  *  10.13781000  *   0.06023000  *
    93       C        -12.18267000  *   8.87699000  *   0.13591000  *
    94       C        -10.70782000  *   9.25007000  *   0.13146000  *
    95       C         -9.86580000  *   7.99311000  *   0.20483000  *
    96       C         -8.38294000  *   8.34649000  *   0.19968000  *
    97       C         -7.59380000  *   7.05739000  *   0.26705000  *
    98       C         -6.08311000  *   7.28674000  *   0.26868000  *
    99       H          1.67432000  *  -4.57294000  *   0.90520000  *
   100       H          6.59268000  *  -4.41834000  *   0.88826000  *
   101       H          7.56580000  *  -2.66675000  *   0.88799000  *
   102       H          4.76422000  *   1.39656000  *   0.77648000  *
   103       H          1.00949000  *   2.40634000  *   0.65118000  *
   104       H         -1.30046000  *  -2.00995000  *   0.82649000  *
   105       H         -7.90932000  *   2.92010000  *   0.48009000  *
   106       H         -5.00861000  *  -1.06002000  *   0.84796000  *
   107       H         -2.04287000  *   4.96035000  *   0.44479000  *
   108       H         -6.95972000  *   4.69446000  *   0.37172000  *
   109       H         -8.48362000  *  -4.54183000  *   2.09365000  *
   110       H         -8.01612000  *  -4.75959000  *   0.34786000  *
   111       H         -9.60451000  *  -4.03480000  *   0.77221000  *
   112       H         -1.53073000  *   9.94247000  *   1.19835000  *
   113       H         -2.67770000  *  10.47077000  *  -0.10042000  *
   114       H         -1.12589000  *   9.64859000  *  -0.54366000  *
   115       H          1.50453000  *  -9.71143000  *   2.03118000  *
   116       H          1.94293000  *  -9.99895000  *   0.29708000  *
   117       H          0.40355000  *  -9.13643000  *   0.71133000  *
   118       H          8.84153000  *   4.54355000  *   1.79277000  *
   119       H          7.71227000  *   5.16195000  *   0.51028000  *
   120       H          9.25038000  *   4.31708000  *   0.04969000  *
   121       H         19.18758000  * -12.62155000  *   0.71684000  *
   122       H         18.90273000  * -11.07713000  *   1.61125000  *
   123       H         18.87103000  * -11.09659000  *  -0.19999000  *
   124       H         16.85956000  * -12.58127000  *  -0.14724000  *
   125       H         16.89111000  * -12.56192000  *   1.66073000  *
   126       H         16.58055000  * -10.07392000  *   1.64061000  *
   127       H         16.54919000  * -10.09329000  *  -0.16949000  *
   128       H         14.54941000  * -11.59343000  *  -0.11907000  *
   129       H         14.58045000  * -11.57386000  *   1.69141000  *
   130       H         14.28111000  *  -9.09074000  *   1.66982000  *
   131       H         14.25062000  *  -9.11009000  *  -0.14089000  *
   132       H         12.26104000  * -10.62273000  *  -0.09163000  *
   133       H         12.29184000  * -10.60286000  *   1.72002000  *
   134       H         11.98268000  *  -8.12521000  *   1.69750000  *
   135       H         11.95054000  *  -8.14458000  *  -0.11305000  *
   136       H          9.96737000  *  -9.67086000  *  -0.06233000  *
   137       H         10.00236000  *  -9.65275000  *   1.75085000  *
   138       H          9.70301000  *  -7.18007000  *   1.72979000  *
   139       H          9.66232000  *  -7.19898000  *  -0.07924000  *
   140       H          7.65039000  *  -8.69594000  *  -0.02021000  *
   141       H          7.69362000  *  -8.68019000  *   1.79450000  *
   142       H          7.49424000  *  -6.21783000  *   1.78458000  *
   143       H          7.44929000  *  -6.23523000  *  -0.04255000  *
   144       H          5.36628000  *  -7.58218000  *   0.03014000  *
   145       H          5.39988000  *  -7.55729000  *   1.83929000  *
   146       H         20.61937000  *   8.43871000  *   0.86310000  *
   147       H         19.12957000  *   8.95823000  *   1.74429000  *
   148       H         19.15013000  *   8.92955000  *  -0.06768000  *
   149       H         19.43554000  *   6.44695000  *  -0.02276000  *
   150       H         19.41515000  *   6.47566000  *   1.78454000  *
   151       H         17.09636000  *   7.43575000  *   1.74462000  *
   152       H         17.11682000  *   7.40662000  *  -0.06583000  *
   153       H         17.44984000  *   4.93067000  *  -0.02201000  *
   154       H         17.42934000  *   4.95972000  *   1.78814000  *
   155       H         15.10226000  *   5.88043000  *   1.74692000  *
   156       H         15.12331000  *   5.85152000  *  -0.06331000  *
   157       H         15.53592000  *   3.38452000  *  -0.02003000  *
   158       H         15.51341000  *   3.41316000  *   1.79227000  *
   159       H         13.16876000  *   4.25971000  *   1.74759000  *
   160       H         13.19244000  *   4.23217000  *  -0.06141000  *
   161       H         13.66145000  *   1.76501000  *  -0.01971000  *
   162       H         13.63500000  *   1.79338000  *   1.79443000  *
   163       H         11.31021000  *   2.66176000  *   1.74229000  *
   164       H         11.33809000  *   2.63121000  *  -0.06582000  *
   165       H         11.67132000  *   0.13777000  *  -0.02290000  *
   166       H         11.64500000  *   0.16843000  *   1.79235000  *
   167       H          9.44756000  *   1.24830000  *   1.76166000  *
   168       H          9.47258000  *   1.21441000  *  -0.09265000  *
   169       H          9.41937000  *  -1.22330000  *  -0.02131000  *
   170       H          9.39573000  *  -1.18734000  *   1.78244000  *
   171       H        -20.60620000  *  -8.39804000  *  -1.04451000  *
   172       H        -19.12695000  *  -8.99255000  *  -0.19457000  *
   173       H        -19.09759000  *  -8.71999000  *  -1.98562000  *
   174       H        -19.45819000  *  -6.27214000  *  -1.61492000  *
   175       H        -19.48677000  *  -6.54717000  *   0.17141000  *
   176       H        -17.13993000  *  -7.43882000  *   0.06937000  *
   177       H        -17.11374000  *  -7.15375000  *  -1.71849000  *
   178       H        -17.51340000  *  -4.71297000  *  -1.32692000  *
   179       H        -17.53249000  *  -5.00614000  *   0.45900000  *
   180       H        -15.17275000  *  -5.87418000  *   0.32674000  *
   181       H        -15.17378000  *  -5.55760000  *  -1.45587000  *
   182       H        -15.66124000  *  -3.13351000  *  -1.00219000  *
   183       H        -15.60849000  *  -3.46637000  *   0.77792000  *
   184       H        -13.21132000  *  -4.23744000  *   0.51506000  *
   185       H        -13.32866000  *  -3.87738000  *  -1.25347000  *
   186       H        -13.93064000  *  -1.46043000  *  -0.65562000  *
   187       H        -13.65769000  *  -1.88466000  *   1.08550000  *
   188       H        -11.31026000  *  -2.58797000  *   0.43982000  *
   189       H        -11.65153000  *  -2.06393000  *  -1.25709000  *
   190       H        -12.12324000  *   0.33121000  *  -0.23334000  *
   191       H        -11.61593000  *  -0.42480000  *   1.32369000  *
   192       H         -9.52937000  *  -1.18270000  *  -0.10612000  *
   193       H         -9.93121000  *   0.08903000  *  -1.23734000  *
   194       H         -9.82152000  *   1.75166000  *   0.69558000  *
   195       H         -9.54280000  *   0.40043000  *   1.84019000  *
   196       H        -19.74971000  *  12.56496000  *  -0.14201000  *
   197       H        -19.42091000  *  11.08767000  *   0.84576000  *
   198       H        -19.40052000  *  10.99340000  *  -0.96328000  *
   199       H        -17.42656000  *  12.52757000  *  -1.01938000  *
   200       H        -17.44692000  *  12.62178000  *   0.78638000  *
   201       H        -17.07397000  *  10.14595000  *   0.92093000  *
   202       H        -17.05364000  *  10.05147000  *  -0.88695000  *
   203       H        -15.09175000  *  11.60048000  *  -0.94616000  *
   204       H        -15.11204000  *  11.69534000  *   0.86204000  *
   205       H        -14.74992000  *   9.22401000  *   0.99604000  *
   206       H        -14.72986000  *   9.12893000  *  -0.81238000  *
   207       H        -12.77942000  *  10.69059000  *  -0.87356000  *
   208       H        -12.79910000  *  10.78605000  *   0.93580000  *
   209       H        -12.42471000  *   8.32045000  *   1.06944000  *
   210       H        -12.40587000  *   8.22509000  *  -0.73878000  *
   211       H        -10.46431000  *   9.80252000  *  -0.80317000  *
   212       H        -10.48211000  *   9.89730000  *   1.00786000  *
   213       H        -10.11467000  *   7.43647000  *   1.13728000  *
   214       H        -10.09856000  *   7.34338000  *  -0.66975000  *
   215       H         -8.12603000  *   8.89401000  *  -0.73360000  *
   216       H         -8.14103000  *   8.98250000  *   1.07938000  *
   217       H         -7.88032000  *   6.52735000  *   1.20449000  *
   218       H         -7.86558000  *   6.44272000  *  -0.62142000  *
   219       H         -5.80531000  *   7.83451000  *  -0.65791000  *
   220       H         -5.82448000  *   7.91458000  *   1.14950000  *
 


          CARTESIAN COORDINATES 

    NO.       ATOM         X         Y         Z

     1         C        5.4985   -1.9503    0.8540
     2         C        4.7265   -0.7656    0.8224
     3         C        3.3317   -0.8385    0.8137
     4         C        2.6775   -2.0846    0.8468
     5         C        3.4160   -3.2734    0.8766
     6         C        4.8311   -3.2169    0.8755
     7         C        2.7572   -4.5196    0.9028
     8         C        3.4783   -5.7125    0.9225
     9         C        4.8819   -5.6831    0.9138
    10         C        5.5315   -4.4334    0.8935
    11         C        6.9081   -1.8171    0.8628
    12         C        7.5482   -0.5710    0.8446
    13         C        6.7383    0.6058    0.8122
    14         C        5.3555    0.4869    0.8001
    15         N        2.5876    0.2996    0.7692
    16         C        1.2407    0.2634    0.7553
    17         C        0.5875   -0.9829    0.7991
    18         N        1.3213   -2.1176    0.8435
    19         C        0.5052    1.4477    0.6908
    20         C       -0.8845    1.3779    0.6696
    21         C       -1.5293    0.1281    0.7261
    22         C       -0.7964   -1.0510    0.7904
    23         N       -1.6334    2.5054    0.5897
    24         C       -2.9930    2.4528    0.5639
    25         C       -3.6296    1.1996    0.6342
    26         N       -2.8719    0.0770    0.7131
    27         C       -3.7571    3.6248    0.4810
    28         C       -5.1742    3.5372    0.4595
    29         C       -5.8205    2.2589    0.5366
    30         C       -5.0212    1.0966    0.6355
    31         C       -7.2319    2.0892    0.5466
    32         C       -7.8294    0.8252    0.6942
    33         C       -6.9946   -0.3135    0.8137
    34         C       -5.6183   -0.1669    0.7605
    35         C       -3.1244    4.8839    0.4263
    36         C       -3.8708    6.0601    0.3556
    37         C       -5.2740    5.9995    0.3355
    38         C       -5.8985    4.7365    0.3846
    39         C       -7.4919   -1.6574    0.9949
    40         C       -3.1777    7.3270    0.3077
    41         C       -7.9398   -2.7761    1.0663
    42         C       -8.5419   -4.1091    1.0760
    43         C       -2.6168    8.3932    0.2624
    44         C       -1.9469    9.6920    0.2010
    45         C        2.7574   -6.9628    0.9475
    46         C        2.1686   -8.0138    0.9720
    47         C        1.4617   -9.2928    1.0047
    48         C        7.2436    1.9597    0.7944
    49         C        7.7284    3.0653    0.7868
    50         C        8.4186    4.3538    0.7844
    51         C       18.6167  -11.6705    0.7166
    52         C       17.1257  -11.9744    0.7460
    53         C       16.3146  -10.6805    0.7463
    54         C       14.8223  -10.9899    0.7753
    55         C       14.0161   -9.6975    0.7750
    56         C       12.5293  -10.0180    0.8033
    57         C       11.7185   -8.7335    0.8030
    58         C       10.2350   -9.0676    0.8335
    59         C        9.4266   -7.7869    0.8374
    60         C        7.9360   -8.1023    0.8759
    61         C        7.1790   -6.7927    0.8838
    62         C        5.6638   -6.9880    0.9216
    63         C       19.5101    8.4190    0.8508
    64         C       19.0302    6.9752    0.8683
    65         C       17.5028    6.9102    0.8521
    66         C       17.0433    5.4571    0.8704
    67         C       15.5216    5.3638    0.8546
    68         C       15.1136    3.8963    0.8732
    69         C       13.6030    3.7524    0.8561
    70         C       13.2342    2.2714    0.8736
    71         C       11.7292    2.1366    0.8530
    72         C       11.2821    0.6737    0.8705
    73         C        9.7683    0.7010    0.8484
    74         C        9.0782   -0.6433    0.8650
    75         C      -19.4981   -8.3470   -1.0190
    76         C      -19.0618   -6.9064   -0.7916
    77         C      -17.5365   -6.8012   -0.7515
    78         C      -17.1134   -5.3558   -0.5106
    79         C      -15.5923   -5.2301   -0.4779
    80         C      -15.2120   -3.7779   -0.2136
    81         C      -13.7031   -3.5888   -0.2462
    82         C      -13.3703   -2.1245    0.0370
    83         C      -11.8916   -1.8773   -0.1885
    84         C      -11.4861   -0.4588    0.2177
    85         C      -10.0224   -0.2162   -0.1723
    86         C       -9.3451    0.7519    0.8060
    87         C      -19.1551   11.6302   -0.0866
    88         C      -17.6720   11.9720   -0.0877
    89         C      -16.8285   10.7010   -0.0118
    90         C      -15.3442   11.0484   -0.0133
    91         C      -14.5053    9.7790    0.0628
    92         C      -13.0268   10.1378    0.0602
    93         C      -12.1827    8.8770    0.1359
    94         C      -10.7078    9.2501    0.1315
    95         C       -9.8658    7.9931    0.2048
    96         C       -8.3829    8.3465    0.1997
    97         C       -7.5938    7.0574    0.2671
    98         C       -6.0831    7.2867    0.2687
    99         H        1.6743   -4.5729    0.9052
   100         H        6.5927   -4.4183    0.8883
   101         H        7.5658   -2.6668    0.8880
   102         H        4.7642    1.3966    0.7765
   103         H        1.0095    2.4063    0.6512
   104         H       -1.3005   -2.0099    0.8265
   105         H       -7.9093    2.9201    0.4801
   106         H       -5.0086   -1.0600    0.8480
   107         H       -2.0429    4.9604    0.4448
   108         H       -6.9597    4.6945    0.3717
   109         H       -8.4836   -4.5418    2.0936
   110         H       -8.0161   -4.7596    0.3479
   111         H       -9.6045   -4.0348    0.7722
   112         H       -1.5307    9.9425    1.1984
   113         H       -2.6777   10.4708   -0.1004
   114         H       -1.1259    9.6486   -0.5437
   115         H        1.5045   -9.7114    2.0312
   116         H        1.9429   -9.9990    0.2971
   117         H        0.4036   -9.1364    0.7113
   118         H        8.8415    4.5435    1.7928
   119         H        7.7123    5.1620    0.5103
   120         H        9.2504    4.3171    0.0497
   121         H       19.1876  -12.6215    0.7168
   122         H       18.9027  -11.0771    1.6113
   123         H       18.8710  -11.0966   -0.2000
   124         H       16.8596  -12.5813   -0.1472
   125         H       16.8911  -12.5619    1.6607
   126         H       16.5805  -10.0739    1.6406
   127         H       16.5492  -10.0933   -0.1695
   128         H       14.5494  -11.5934   -0.1191
   129         H       14.5804  -11.5739    1.6914
   130         H       14.2811   -9.0907    1.6698
   131         H       14.2506   -9.1101   -0.1409
   132         H       12.2610  -10.6227   -0.0916
   133         H       12.2918  -10.6029    1.7200
   134         H       11.9827   -8.1252    1.6975
   135         H       11.9505   -8.1446   -0.1130
   136         H        9.9674   -9.6709   -0.0623
   137         H       10.0024   -9.6528    1.7509
   138         H        9.7030   -7.1801    1.7298
   139         H        9.6623   -7.1990   -0.0792
   140         H        7.6504   -8.6959   -0.0202
   141         H        7.6936   -8.6802    1.7945
   142         H        7.4942   -6.2178    1.7846
   143         H        7.4493   -6.2352   -0.0426
   144         H        5.3663   -7.5822    0.0301
   145         H        5.3999   -7.5573    1.8393
   146         H       20.6194    8.4387    0.8631
   147         H       19.1296    8.9582    1.7443
   148         H       19.1501    8.9296   -0.0677
   149         H       19.4355    6.4470   -0.0228
   150         H       19.4152    6.4757    1.7845
   151         H       17.0964    7.4357    1.7446
   152         H       17.1168    7.4066   -0.0658
   153         H       17.4498    4.9307   -0.0220
   154         H       17.4293    4.9597    1.7881
   155         H       15.1023    5.8804    1.7469
   156         H       15.1233    5.8515   -0.0633
   157         H       15.5359    3.3845   -0.0200
   158         H       15.5134    3.4132    1.7923
   159         H       13.1688    4.2597    1.7476
   160         H       13.1924    4.2322   -0.0614
   161         H       13.6615    1.7650   -0.0197
   162         H       13.6350    1.7934    1.7944
   163         H       11.3102    2.6618    1.7423
   164         H       11.3381    2.6312   -0.0658
   165         H       11.6713    0.1378   -0.0229
   166         H       11.6450    0.1684    1.7923
   167         H        9.4476    1.2483    1.7617
   168         H        9.4726    1.2144   -0.0926
   169         H        9.4194   -1.2233   -0.0213
   170         H        9.3957   -1.1873    1.7824
   171         H      -20.6062   -8.3980   -1.0445
   172         H      -19.1270   -8.9925   -0.1946
   173         H      -19.0976   -8.7200   -1.9856
   174         H      -19.4582   -6.2721   -1.6149
   175         H      -19.4868   -6.5472    0.1714
   176         H      -17.1399   -7.4388    0.0694
   177         H      -17.1137   -7.1537   -1.7185
   178         H      -17.5134   -4.7130   -1.3269
   179         H      -17.5325   -5.0061    0.4590
   180         H      -15.1728   -5.8742    0.3267
   181         H      -15.1738   -5.5576   -1.4559
   182         H      -15.6612   -3.1335   -1.0022
   183         H      -15.6085   -3.4664    0.7779
   184         H      -13.2113   -4.2374    0.5151
   185         H      -13.3287   -3.8774   -1.2535
   186         H      -13.9306   -1.4604   -0.6556
   187         H      -13.6577   -1.8847    1.0855
   188         H      -11.3103   -2.5880    0.4398
   189         H      -11.6515   -2.0639   -1.2571
   190         H      -12.1232    0.3312   -0.2333
   191         H      -11.6159   -0.4248    1.3237
   192         H       -9.5294   -1.1827   -0.1061
   193         H       -9.9312    0.0890   -1.2373
   194         H       -9.8215    1.7517    0.6956
   195         H       -9.5428    0.4004    1.8402
   196         H      -19.7497   12.5650   -0.1420
   197         H      -19.4209   11.0877    0.8458
   198         H      -19.4005   10.9934   -0.9633
   199         H      -17.4266   12.5276   -1.0194
   200         H      -17.4469   12.6218    0.7864
   201         H      -17.0740   10.1459    0.9209
   202         H      -17.0536   10.0515   -0.8870
   203         H      -15.0917   11.6005   -0.9462
   204         H      -15.1120   11.6953    0.8620
   205         H      -14.7499    9.2240    0.9960
   206         H      -14.7299    9.1289   -0.8124
   207         H      -12.7794   10.6906   -0.8736
   208         H      -12.7991   10.7860    0.9358
   209         H      -12.4247    8.3204    1.0694
   210         H      -12.4059    8.2251   -0.7388
   211         H      -10.4643    9.8025   -0.8032
   212         H      -10.4821    9.8973    1.0079
   213         H      -10.1147    7.4365    1.1373
   214         H      -10.0986    7.3434   -0.6698
   215         H       -8.1260    8.8940   -0.7336
   216         H       -8.1410    8.9825    1.0794
   217         H       -7.8803    6.5274    1.2045
   218         H       -7.8656    6.4427   -0.6214
   219         H       -5.8053    7.8345   -0.6579
   220         H       -5.8245    7.9146    1.1495

 General Reference for PM7:
 "Optimization of Parameters for Semiempirical Methods VI: More Modifications to the 
 NDDO Approximations and Re-optimization of Parameters", J. J. P. Stewart, J. Mol. Mod., 1:32, 19 (2013)
 http://www.springerlink.com/openurl.asp?genre=article&id=doi:10.1007/s00894-012-1667-x

           Empirical Formula: C94 H122 N4  =   220 atoms



      MOLECULAR POINT GROUP   :   C1  


      RHF CALCULATION, NO. OF DOUBLY OCCUPIED LEVELS = 259


          Geometry optimization using BFGS
 CYCLE:     1 TIME:   1.980 TIME LEFT:  2.00D  GRAD.:   203.305 HEAT:  154.9364
 CYCLE:     2 TIME:   1.308 TIME LEFT:  2.00D  GRAD.:   127.782 HEAT:  146.5618
 CYCLE:     3 TIME:   1.318 TIME LEFT:  2.00D  GRAD.:   102.621 HEAT:  144.0412
 CYCLE:     4 TIME:   1.184 TIME LEFT:  2.00D  GRAD.:    83.404 HEAT:  141.9331
 CYCLE:     5 TIME:   1.189 TIME LEFT:  2.00D  GRAD.:    72.506 HEAT:  140.3618
 CYCLE:     6 TIME:   1.134 TIME LEFT:  2.00D  GRAD.:    64.562 HEAT:  139.3385
 CYCLE:     7 TIME:   1.151 TIME LEFT:  2.00D  GRAD.:    56.917 HEAT:  138.4861
 CYCLE:     8 TIME:   1.115 TIME LEFT:  2.00D  GRAD.:    47.909 HEAT:  137.8380
 CYCLE:     9 TIME:   1.086 TIME LEFT:  2.00D  GRAD.:    37.375 HEAT:  137.2556
 CYCLE:    10 TIME:   1.130 TIME LEFT:  2.00D  GRAD.:    32.264 HEAT:  136.9504
 CYCLE:    11 TIME:   1.023 TIME LEFT:  2.00D  GRAD.:    30.060 HEAT:  136.7549
 CYCLE:    12 TIME:   1.062 TIME LEFT:  2.00D  GRAD.:    28.409 HEAT:  136.5552
 CYCLE:    13 TIME:   1.021 TIME LEFT:  2.00D  GRAD.:    28.174 HEAT:  136.3601
 CYCLE:    14 TIME:   1.022 TIME LEFT:  2.00D  GRAD.:    28.011 HEAT:  136.1929
 CYCLE:    15 TIME:   1.023 TIME LEFT:  2.00D  GRAD.:    27.602 HEAT:  135.9985
 CYCLE:    16 TIME:   1.018 TIME LEFT:  2.00D  GRAD.:    27.246 HEAT:  135.8136
 CYCLE:    17 TIME:   1.020 TIME LEFT:  2.00D  GRAD.:    27.191 HEAT:  135.6054
 CYCLE:    18 TIME:   1.021 TIME LEFT:  2.00D  GRAD.:    27.345 HEAT:  135.4202
 CYCLE:    19 TIME:   1.107 TIME LEFT:  2.00D  GRAD.:    27.891 HEAT:  135.2596
 CYCLE:    20 TIME:   1.021 TIME LEFT:  2.00D  GRAD.:    27.662 HEAT:  135.0787
 CYCLE:    21 TIME:   1.082 TIME LEFT:  2.00D  GRAD.:    26.399 HEAT:  134.9265
 TEST ON GRADIENT SATISFIED
                    HOWEVER, A COMPONENT OF GRADIENT IS LARGER THAN  1.00

 CYCLE:    22 TIME:   1.129 TIME LEFT:  2.00D  GRAD.:    24.699 HEAT:  134.7641
 TEST ON GRADIENT SATISFIED
                    HOWEVER, A COMPONENT OF GRADIENT IS LARGER THAN  1.00

 CYCLE:    23 TIME:   1.026 TIME LEFT:  2.00D  GRAD.:    24.279 HEAT:  134.5763
 TEST ON GRADIENT SATISFIED
                    HOWEVER, A COMPONENT OF GRADIENT IS LARGER THAN  1.00

 CYCLE:    24 TIME:   1.033 TIME LEFT:  2.00D  GRAD.:    23.340 HEAT:  134.4324
 TEST ON GRADIENT SATISFIED
                    HOWEVER, A COMPONENT OF GRADIENT IS LARGER THAN  1.00

 CYCLE:    25 TIME:   1.032 TIME LEFT:  2.00D  GRAD.:    22.005 HEAT:  134.2873
 TEST ON GRADIENT SATISFIED
                    HOWEVER, A COMPONENT OF GRADIENT IS LARGER THAN  1.00

 CYCLE:    26 TIME:   1.071 TIME LEFT:  2.00D  GRAD.:    20.490 HEAT:  134.1219
 TEST ON GRADIENT SATISFIED
                    HOWEVER, A COMPONENT OF GRADIENT IS LARGER THAN  1.00

 CYCLE:    27 TIME:   1.042 TIME LEFT:  2.00D  GRAD.:    20.210 HEAT:  134.0075
 TEST ON GRADIENT SATISFIED
                    HOWEVER, A COMPONENT OF GRADIENT IS LARGER THAN  1.00

 CYCLE:    28 TIME:   1.047 TIME LEFT:  2.00D  GRAD.:    19.475 HEAT:  133.8737
 TEST ON GRADIENT SATISFIED
                    HOWEVER, A COMPONENT OF GRADIENT IS LARGER THAN  1.00

 CYCLE:    29 TIME:   1.087 TIME LEFT:  2.00D  GRAD.:    19.837 HEAT:  133.7256
 TEST ON GRADIENT SATISFIED
                    HOWEVER, A COMPONENT OF GRADIENT IS LARGER THAN  1.00

 CYCLE:    30 TIME:   1.041 TIME LEFT:  2.00D  GRAD.:    20.101 HEAT:  133.6010
 TEST ON GRADIENT SATISFIED
                    HOWEVER, A COMPONENT OF GRADIENT IS LARGER THAN  1.00

 CYCLE:    31 TIME:   1.075 TIME LEFT:  2.00D  GRAD.:    20.844 HEAT:  133.4285
 TEST ON GRADIENT SATISFIED
                    HOWEVER, A COMPONENT OF GRADIENT IS LARGER THAN  1.00

 CYCLE:    32 TIME:   1.074 TIME LEFT:  2.00D  GRAD.:    20.508 HEAT:  133.3020
 TEST ON GRADIENT SATISFIED
                    HOWEVER, A COMPONENT OF GRADIENT IS LARGER THAN  1.00

 CYCLE:    33 TIME:   1.074 TIME LEFT:  2.00D  GRAD.:    19.263 HEAT:  133.1797
 TEST ON GRADIENT SATISFIED
                    HOWEVER, A COMPONENT OF GRADIENT IS LARGER THAN  1.00

 CYCLE:    34 TIME:   1.103 TIME LEFT:  2.00D  GRAD.:    18.621 HEAT:  133.0380
 TEST ON GRADIENT SATISFIED
                    HOWEVER, A COMPONENT OF GRADIENT IS LARGER THAN  1.00

 CYCLE:    35 TIME:   1.080 TIME LEFT:  2.00D  GRAD.:    17.324 HEAT:  132.9208
 TEST ON GRADIENT SATISFIED
                    HOWEVER, A COMPONENT OF GRADIENT IS LARGER THAN  1.00

 CYCLE:    36 TIME:   1.023 TIME LEFT:  2.00D  GRAD.:    16.364 HEAT:  132.8211
 TEST ON GRADIENT SATISFIED
                    HOWEVER, A COMPONENT OF GRADIENT IS LARGER THAN  1.00

 CYCLE:    37 TIME:   1.015 TIME LEFT:  2.00D  GRAD.:    16.122 HEAT:  132.7361
 TEST ON GRADIENT SATISFIED
                    HOWEVER, A COMPONENT OF GRADIENT IS LARGER THAN  1.00

           THERE HAVE BEEN 3 ATTEMPTS TO REDUCE THE GRADIENT.
           DURING THESE ATTEMPTS THE ENERGY DROPPED BY LESS THAN 0.3 KCAL/MOLE
           FURTHER CALCULATION IS NOT JUSTIFIED AT THIS TIME.
           TO CONTINUE, START AGAIN WITH THE WORD "PRECISE"

 -------------------------------------------------------------------------------
PM7 BFGS CHARGE=0
 chassi-G-1a-cd.xyz



     GRADIENT TEST NOT PASSED, BUT FURTHER WORK NOT JUSTIFIED 
     SCF FIELD WAS ACHIEVED                                   


                              PM7 CALCULATION
                                                       MOPAC2016 (Version: 16.035L)
                                                       Fri Apr 28 02:49:14 2017
                                                       No. of days remaining = 474




          FINAL HEAT OF FORMATION =        132.66870 KCAL/MOL =     555.08584 KJ/MOL


          TOTAL ENERGY            =     -13938.21583 EV
          ELECTRONIC ENERGY       =    -208268.01100 EV  POINT GROUP:     C1  
          CORE-CORE REPULSION     =     194329.79516 EV
          COSMO AREA              =       1569.52 SQUARE ANGSTROMS
          COSMO VOLUME            =       1781.69 CUBIC ANGSTROMS

          GRADIENT NORM           =         15.77119
          IONIZATION POTENTIAL    =          8.412947 EV
          HOMO LUMO ENERGIES (EV) =         -8.413 -1.868
          NO. OF FILLED LEVELS    =        259
          MOLECULAR WEIGHT        =       1308.0246

          MOLECULAR DIMENSIONS (Angstroms)

            Atom       Atom       Distance
            H   196    H   121    46.56677
            H   171    H   146    36.67508
            H   173    H   109     3.61880


          SCF CALCULATIONS        =         79
 
          WALL-CLOCK TIME         =         44.220 SECONDS
          COMPUTATION TIME        =         43.852 SECONDS



       FINAL  POINT  AND  DERIVATIVES

   PARAMETER     ATOM    TYPE            VALUE       GRADIENT
      1          1  C    CARTESIAN X     5.488700    -1.141670  KCAL/ANGSTROM
      2          1  C    CARTESIAN Y    -1.927628    -0.385711  KCAL/ANGSTROM
      3          1  C    CARTESIAN Z     0.858232     0.174634  KCAL/ANGSTROM
      4          2  C    CARTESIAN X     4.747927     0.685406  KCAL/ANGSTROM
      5          2  C    CARTESIAN Y    -0.733803     0.415338  KCAL/ANGSTROM
      6          2  C    CARTESIAN Z     0.822839     0.183994  KCAL/ANGSTROM
      7          3  C    CARTESIAN X     3.294998    -0.397148  KCAL/ANGSTROM
      8          3  C    CARTESIAN Y    -0.779356     2.391689  KCAL/ANGSTROM
      9          3  C    CARTESIAN Z     0.803710     1.338246  KCAL/ANGSTROM
     10          4  C    CARTESIAN X     2.616833     1.639464  KCAL/ANGSTROM
     11          4  C    CARTESIAN Y    -2.077504     1.109397  KCAL/ANGSTROM
     12          4  C    CARTESIAN Z     0.846178    -1.559940  KCAL/ANGSTROM
     13          5  C    CARTESIAN X     3.402455    -0.464941  KCAL/ANGSTROM
     14          5  C    CARTESIAN Y    -3.299678    -0.212656  KCAL/ANGSTROM
     15          5  C    CARTESIAN Z     0.885401     0.504564  KCAL/ANGSTROM
     16          6  C    CARTESIAN X     4.803505    -1.504958  KCAL/ANGSTROM
     17          6  C    CARTESIAN Y    -3.222274     0.528882  KCAL/ANGSTROM
     18          6  C    CARTESIAN Z     0.879623    -0.066895  KCAL/ANGSTROM
     19          7  C    CARTESIAN X     2.746369    -1.132658  KCAL/ANGSTROM
     20          7  C    CARTESIAN Y    -4.536613    -0.431622  KCAL/ANGSTROM
     21          7  C    CARTESIAN Z     0.911794     0.184147  KCAL/ANGSTROM
     22          8  C    CARTESIAN X     3.479752    -1.608273  KCAL/ANGSTROM
     23          8  C    CARTESIAN Y    -5.720158    -0.169216  KCAL/ANGSTROM
     24          8  C    CARTESIAN Z     0.927321     0.151057  KCAL/ANGSTROM
     25          9  C    CARTESIAN X     4.889077    -1.106688  KCAL/ANGSTROM
     26          9  C    CARTESIAN Y    -5.658827     0.533483  KCAL/ANGSTROM
     27          9  C    CARTESIAN Z     0.913516     0.536386  KCAL/ANGSTROM
     28         10  C    CARTESIAN X     5.523841    -0.753589  KCAL/ANGSTROM
     29         10  C    CARTESIAN Y    -4.421704     1.191298  KCAL/ANGSTROM
     30         10  C    CARTESIAN Z     0.890787    -0.813177  KCAL/ANGSTROM
     31         11  C    CARTESIAN X     6.881974    -0.789823  KCAL/ANGSTROM
     32         11  C    CARTESIAN Y    -1.823278     0.175244  KCAL/ANGSTROM
     33         11  C    CARTESIAN Z     0.869825    -0.463643  KCAL/ANGSTROM
     34         12  C    CARTESIAN X     7.546322     0.268239  KCAL/ANGSTROM
     35         12  C    CARTESIAN Y    -0.590684     0.810461  KCAL/ANGSTROM
     36         12  C    CARTESIAN Z     0.847450    -0.427766  KCAL/ANGSTROM
     37         13  C    CARTESIAN X     6.784901    -0.769567  KCAL/ANGSTROM
     38         13  C    CARTESIAN Y     0.592738     0.140536  KCAL/ANGSTROM
     39         13  C    CARTESIAN Z     0.816635    -0.935608  KCAL/ANGSTROM
     40         14  C    CARTESIAN X     5.388667    -0.513554  KCAL/ANGSTROM
     41         14  C    CARTESIAN Y     0.504395     1.246817  KCAL/ANGSTROM
     42         14  C    CARTESIAN Z     0.805630     0.247131  KCAL/ANGSTROM
     43         15  N    CARTESIAN X     2.616086     0.503223  KCAL/ANGSTROM
     44         15  N    CARTESIAN Y     0.343743    -0.705136  KCAL/ANGSTROM
     45         15  N    CARTESIAN Z     0.745522    -1.236336  KCAL/ANGSTROM
     46         16  C    CARTESIAN X     1.238922     0.818905  KCAL/ANGSTROM
     47         16  C    CARTESIAN Y     0.276712    -0.587747  KCAL/ANGSTROM
     48         16  C    CARTESIAN Z     0.734842     1.582872  KCAL/ANGSTROM
     49         17  C    CARTESIAN X     0.574030    -2.649054  KCAL/ANGSTROM
     50         17  C    CARTESIAN Y    -0.997137    -0.455261  KCAL/ANGSTROM
     51         17  C    CARTESIAN Z     0.790575    -1.309311  KCAL/ANGSTROM
     52         18  N    CARTESIAN X     1.304721    -0.809384  KCAL/ANGSTROM
     53         18  N    CARTESIAN Y    -2.165628    -2.409136  KCAL/ANGSTROM
     54         18  N    CARTESIAN Z     0.855809     0.984584  KCAL/ANGSTROM
     55         19  C    CARTESIAN X     0.514240    -0.156343  KCAL/ANGSTROM
     56         19  C    CARTESIAN Y     1.467851     0.087002  KCAL/ANGSTROM
     57         19  C    CARTESIAN Z     0.662091     0.289134  KCAL/ANGSTROM
     58         20  C    CARTESIAN X    -0.877474     2.855400  KCAL/ANGSTROM
     59         20  C    CARTESIAN Y     1.388746    -0.055700  KCAL/ANGSTROM
     60         20  C    CARTESIAN Z     0.653388    -0.709131  KCAL/ANGSTROM
     61         21  C    CARTESIAN X    -1.537239    -1.769729  KCAL/ANGSTROM
     62         21  C    CARTESIAN Y     0.113899     1.887636  KCAL/ANGSTROM
     63         21  C    CARTESIAN Z     0.719755    -0.301034  KCAL/ANGSTROM
     64         22  C    CARTESIAN X    -0.815733     0.393532  KCAL/ANGSTROM
     65         22  C    CARTESIAN Y    -1.077309     0.692533  KCAL/ANGSTROM
     66         22  C    CARTESIAN Z     0.784437    -0.023766  KCAL/ANGSTROM
     67         23  N    CARTESIAN X    -1.625428     0.407001  KCAL/ANGSTROM
     68         23  N    CARTESIAN Y     2.547459     0.100682  KCAL/ANGSTROM
     69         23  N    CARTESIAN Z     0.584446     0.984847  KCAL/ANGSTROM
     70         24  C    CARTESIAN X    -2.937554    -0.918057  KCAL/ANGSTROM
     71         24  C    CARTESIAN Y     2.446432    -0.383572  KCAL/ANGSTROM
     72         24  C    CARTESIAN Z     0.564637    -1.649495  KCAL/ANGSTROM
     73         25  C    CARTESIAN X    -3.601369     1.720239  KCAL/ANGSTROM
     74         25  C    CARTESIAN Y     1.143986    -1.803985  KCAL/ANGSTROM
     75         25  C    CARTESIAN Z     0.641803     0.690991  KCAL/ANGSTROM
     76         26  N    CARTESIAN X    -2.910463    -0.034549  KCAL/ANGSTROM
     77         26  N    CARTESIAN Y     0.031491     1.638102  KCAL/ANGSTROM
     78         26  N    CARTESIAN Z     0.723184     0.832663  KCAL/ANGSTROM
     79         27  C    CARTESIAN X    -3.754788    -0.189102  KCAL/ANGSTROM
     80         27  C    CARTESIAN Y     3.646941     0.854908  KCAL/ANGSTROM
     81         27  C    CARTESIAN Z     0.488137     0.418073  KCAL/ANGSTROM
     82         28  C    CARTESIAN X    -5.155955     1.127824  KCAL/ANGSTROM
     83         28  C    CARTESIAN Y     3.538539    -0.521975  KCAL/ANGSTROM
     84         28  C    CARTESIAN Z     0.478514     0.188843  KCAL/ANGSTROM
     85         29  C    CARTESIAN X    -5.820220     2.136596  KCAL/ANGSTROM
     86         29  C    CARTESIAN Y     2.234027    -0.546876  KCAL/ANGSTROM
     87         29  C    CARTESIAN Z     0.561359    -0.104333  KCAL/ANGSTROM
     88         30  C    CARTESIAN X    -5.052375     0.595220  KCAL/ANGSTROM
     89         30  C    CARTESIAN Y     1.063438     0.347194  KCAL/ANGSTROM
     90         30  C    CARTESIAN Z     0.642932     0.691429  KCAL/ANGSTROM
     91         31  C    CARTESIAN X    -7.217260     0.093658  KCAL/ANGSTROM
     92         31  C    CARTESIAN Y     2.098204     2.863413  KCAL/ANGSTROM
     93         31  C    CARTESIAN Z     0.588948    -0.556321  KCAL/ANGSTROM
     94         32  C    CARTESIAN X    -7.827292     1.015906  KCAL/ANGSTROM
     95         32  C    CARTESIAN Y     0.850282     2.545785  KCAL/ANGSTROM
     96         32  C    CARTESIAN Z     0.716862    -0.298002  KCAL/ANGSTROM
     97         33  C    CARTESIAN X    -7.039508     1.062687  KCAL/ANGSTROM
     98         33  C    CARTESIAN Y    -0.319040    -1.196766  KCAL/ANGSTROM
     99         33  C    CARTESIAN Z     0.793683    -0.407721  KCAL/ANGSTROM
    100         34  C    CARTESIAN X    -5.653559    -0.936473  KCAL/ANGSTROM
    101         34  C    CARTESIAN Y    -0.196360    -1.027818  KCAL/ANGSTROM
    102         34  C    CARTESIAN Z     0.740794    -0.130950  KCAL/ANGSTROM
    103         35  C    CARTESIAN X    -3.123434     0.749030  KCAL/ANGSTROM
    104         35  C    CARTESIAN Y     4.895330     0.185913  KCAL/ANGSTROM
    105         35  C    CARTESIAN Z     0.427634     1.010947  KCAL/ANGSTROM
    106         36  C    CARTESIAN X    -3.877926     1.888346  KCAL/ANGSTROM
    107         36  C    CARTESIAN Y     6.062527    -0.177541  KCAL/ANGSTROM
    108         36  C    CARTESIAN Z     0.348267    -1.178544  KCAL/ANGSTROM
    109         37  C    CARTESIAN X    -5.285775     1.712458  KCAL/ANGSTROM
    110         37  C    CARTESIAN Y     5.969234    -1.233760  KCAL/ANGSTROM
    111         37  C    CARTESIAN Z     0.337083    -0.379209  KCAL/ANGSTROM
    112         38  C    CARTESIAN X    -5.898853    -0.210028  KCAL/ANGSTROM
    113         38  C    CARTESIAN Y     4.721951    -0.882881  KCAL/ANGSTROM
    114         38  C    CARTESIAN Z     0.398323    -0.194364  KCAL/ANGSTROM
    115         39  C    CARTESIAN X    -7.569068     0.539775  KCAL/ANGSTROM
    116         39  C    CARTESIAN Y    -1.617037    -1.784901  KCAL/ANGSTROM
    117         39  C    CARTESIAN Z     0.937933     0.389079  KCAL/ANGSTROM
    118         40  C    CARTESIAN X    -3.234226    -1.211618  KCAL/ANGSTROM
    119         40  C    CARTESIAN Y     7.312077     1.978814  KCAL/ANGSTROM
    120         40  C    CARTESIAN Z     0.296506    -0.123536  KCAL/ANGSTROM
    121         41  C    CARTESIAN X    -7.977561    -0.156049  KCAL/ANGSTROM
    122         41  C    CARTESIAN Y    -2.756629    -1.090925  KCAL/ANGSTROM
    123         41  C    CARTESIAN Z     1.037727     0.160538  KCAL/ANGSTROM
    124         42  C    CARTESIAN X    -8.458596    -0.050170  KCAL/ANGSTROM
    125         42  C    CARTESIAN Y    -4.098134    -1.623267  KCAL/ANGSTROM
    126         42  C    CARTESIAN Z     1.131464     0.636752  KCAL/ANGSTROM
    127         43  C    CARTESIAN X    -2.649981     1.214182  KCAL/ANGSTROM
    128         43  C    CARTESIAN Y     8.375365     0.291876  KCAL/ANGSTROM
    129         43  C    CARTESIAN Z     0.259398     0.421532  KCAL/ANGSTROM
    130         44  C    CARTESIAN X    -1.966722    -0.649680  KCAL/ANGSTROM
    131         44  C    CARTESIAN Y     9.626440    -0.641643  KCAL/ANGSTROM
    132         44  C    CARTESIAN Z     0.212921     0.021939  KCAL/ANGSTROM
    133         45  C    CARTESIAN X     2.808736     1.998807  KCAL/ANGSTROM
    134         45  C    CARTESIAN Y    -6.954796    -0.791912  KCAL/ANGSTROM
    135         45  C    CARTESIAN Z     0.950093    -0.191088  KCAL/ANGSTROM
    136         46  C    CARTESIAN X     2.195806    -1.248028  KCAL/ANGSTROM
    137         46  C    CARTESIAN Y    -8.002149     0.031474  KCAL/ANGSTROM
    138         46  C    CARTESIAN Z     0.972519     0.300765  KCAL/ANGSTROM
    139         47  C    CARTESIAN X     1.482541     0.068790  KCAL/ANGSTROM
    140         47  C    CARTESIAN Y    -9.237344     0.068242  KCAL/ANGSTROM
    141         47  C    CARTESIAN Z     0.997705    -0.302048  KCAL/ANGSTROM
    142         48  C    CARTESIAN X     7.308001     1.750422  KCAL/ANGSTROM
    143         48  C    CARTESIAN Y     1.900375    -1.320586  KCAL/ANGSTROM
    144         48  C    CARTESIAN Z     0.803776     0.844658  KCAL/ANGSTROM
    145         49  C    CARTESIAN X     7.714500     0.993553  KCAL/ANGSTROM
    146         49  C    CARTESIAN Y     3.045301     0.229561  KCAL/ANGSTROM
    147         49  C    CARTESIAN Z     0.784053    -0.263260  KCAL/ANGSTROM
    148         50  C    CARTESIAN X     8.252586    -0.737844  KCAL/ANGSTROM
    149         50  C    CARTESIAN Y     4.366789    -0.328895  KCAL/ANGSTROM
    150         50  C    CARTESIAN Z     0.769097    -0.409620  KCAL/ANGSTROM
    151         51  C    CARTESIAN X    18.714364     0.875851  KCAL/ANGSTROM
    152         51  C    CARTESIAN Y   -11.690689     0.245333  KCAL/ANGSTROM
    153         51  C    CARTESIAN Z     0.710343     0.043021  KCAL/ANGSTROM
    154         52  C    CARTESIAN X    17.215468    -0.273741  KCAL/ANGSTROM
    155         52  C    CARTESIAN Y   -11.997523     0.341906  KCAL/ANGSTROM
    156         52  C    CARTESIAN Z     0.748771    -0.087024  KCAL/ANGSTROM
    157         53  C    CARTESIAN X    16.387041     0.401242  KCAL/ANGSTROM
    158         53  C    CARTESIAN Y   -10.705361    -0.088151  KCAL/ANGSTROM
    159         53  C    CARTESIAN Z     0.741378     0.443636  KCAL/ANGSTROM
    160         54  C    CARTESIAN X    14.884188    -0.953193  KCAL/ANGSTROM
    161         54  C    CARTESIAN Y   -11.015400     0.417861  KCAL/ANGSTROM
    162         54  C    CARTESIAN Z     0.779696    -0.547489  KCAL/ANGSTROM
    163         55  C    CARTESIAN X    14.056690    -0.533285  KCAL/ANGSTROM
    164         55  C    CARTESIAN Y    -9.723055     0.870937  KCAL/ANGSTROM
    165         55  C    CARTESIAN Z     0.769522     0.449267  KCAL/ANGSTROM
    166         56  C    CARTESIAN X    12.557992    -1.824180  KCAL/ANGSTROM
    167         56  C    CARTESIAN Y   -10.050519     0.592480  KCAL/ANGSTROM
    168         56  C    CARTESIAN Z     0.807870    -0.234323  KCAL/ANGSTROM
    169         57  C    CARTESIAN X    11.722887    -0.697773  KCAL/ANGSTROM
    170         57  C    CARTESIAN Y    -8.767211     0.961979  KCAL/ANGSTROM
    171         57  C    CARTESIAN Z     0.798592     0.371010  KCAL/ANGSTROM
    172         58  C    CARTESIAN X    10.226920    -1.777680  KCAL/ANGSTROM
    173         58  C    CARTESIAN Y    -9.103447    -0.362936  KCAL/ANGSTROM
    174         58  C    CARTESIAN Z     0.840064    -0.297030  KCAL/ANGSTROM
    175         59  C    CARTESIAN X     9.414675     0.154814  KCAL/ANGSTROM
    176         59  C    CARTESIAN Y    -7.808355     0.221850  KCAL/ANGSTROM
    177         59  C    CARTESIAN Z     0.837053    -0.148070  KCAL/ANGSTROM
    178         60  C    CARTESIAN X     7.910195    -0.080928  KCAL/ANGSTROM
    179         60  C    CARTESIAN Y    -8.098360    -0.670923  KCAL/ANGSTROM
    180         60  C    CARTESIAN Z     0.881223    -0.183399  KCAL/ANGSTROM
    181         61  C    CARTESIAN X     7.167284    -0.142707  KCAL/ANGSTROM
    182         61  C    CARTESIAN Y    -6.759660    -0.226104  KCAL/ANGSTROM
    183         61  C    CARTESIAN Z     0.888967     0.094806  KCAL/ANGSTROM
    184         62  C    CARTESIAN X     5.650529    -0.282048  KCAL/ANGSTROM
    185         62  C    CARTESIAN Y    -6.946573     0.535568  KCAL/ANGSTROM
    186         62  C    CARTESIAN Z     0.918116    -0.762820  KCAL/ANGSTROM
    187         63  C    CARTESIAN X    19.564120     0.611759  KCAL/ANGSTROM
    188         63  C    CARTESIAN Y     8.482233     0.244530  KCAL/ANGSTROM
    189         63  C    CARTESIAN Z     0.842762     0.143202  KCAL/ANGSTROM
    190         64  C    CARTESIAN X    19.092463     0.805319  KCAL/ANGSTROM
    191         64  C    CARTESIAN Y     7.028063    -0.949582  KCAL/ANGSTROM
    192         64  C    CARTESIAN Z     0.871581    -1.010221  KCAL/ANGSTROM
    193         65  C    CARTESIAN X    17.558499    -0.416352  KCAL/ANGSTROM
    194         65  C    CARTESIAN Y     6.942896     0.485317  KCAL/ANGSTROM
    195         65  C    CARTESIAN Z     0.849025     0.094977  KCAL/ANGSTROM
    196         66  C    CARTESIAN X    17.107786    -0.065844  KCAL/ANGSTROM
    197         66  C    CARTESIAN Y     5.477083    -0.569194  KCAL/ANGSTROM
    198         66  C    CARTESIAN Z     0.876279    -0.320376  KCAL/ANGSTROM
    199         67  C    CARTESIAN X    15.577920    -1.795173  KCAL/ANGSTROM
    200         67  C    CARTESIAN Y     5.356157     1.113461  KCAL/ANGSTROM
    201         67  C    CARTESIAN Z     0.850997     0.180537  KCAL/ANGSTROM
    202         68  C    CARTESIAN X    15.177562    -0.317386  KCAL/ANGSTROM
    203         68  C    CARTESIAN Y     3.874050    -0.590017  KCAL/ANGSTROM
    204         68  C    CARTESIAN Z     0.880122    -0.376111  KCAL/ANGSTROM
    205         69  C    CARTESIAN X    13.654762    -1.421852  KCAL/ANGSTROM
    206         69  C    CARTESIAN Y     3.717569     0.301024  KCAL/ANGSTROM
    207         69  C    CARTESIAN Z     0.853192     0.384274  KCAL/ANGSTROM
    208         70  C    CARTESIAN X    13.260289    -0.229442  KCAL/ANGSTROM
    209         70  C    CARTESIAN Y     2.233568    -1.430649  KCAL/ANGSTROM
    210         70  C    CARTESIAN Z     0.879719    -0.258515  KCAL/ANGSTROM
    211         71  C    CARTESIAN X    11.735827    -0.749172  KCAL/ANGSTROM
    212         71  C    CARTESIAN Y     2.124007     1.038337  KCAL/ANGSTROM
    213         71  C    CARTESIAN Z     0.845190    -1.052489  KCAL/ANGSTROM
    214         72  C    CARTESIAN X    11.258601    -1.477947  KCAL/ANGSTROM
    215         72  C    CARTESIAN Y     0.662876     0.317940  KCAL/ANGSTROM
    216         72  C    CARTESIAN Z     0.869117    -0.264629  KCAL/ANGSTROM
    217         73  C    CARTESIAN X     9.730247    -0.611202  KCAL/ANGSTROM
    218         73  C    CARTESIAN Y     0.699683     0.241238  KCAL/ANGSTROM
    219         73  C    CARTESIAN Z     0.851523    -0.450268  KCAL/ANGSTROM
    220         74  C    CARTESIAN X     9.048258     0.334141  KCAL/ANGSTROM
    221         74  C    CARTESIAN Y    -0.664239    -0.645552  KCAL/ANGSTROM
    222         74  C    CARTESIAN Z     0.865353     0.769880  KCAL/ANGSTROM
    223         75  C    CARTESIAN X   -19.535511    -0.078619  KCAL/ANGSTROM
    224         75  C    CARTESIAN Y    -8.397044    -0.313892  KCAL/ANGSTROM
    225         75  C    CARTESIAN Z    -1.028289    -0.035300  KCAL/ANGSTROM
    226         76  C    CARTESIAN X   -19.098584    -0.575270  KCAL/ANGSTROM
    227         76  C    CARTESIAN Y    -6.949654     0.432661  KCAL/ANGSTROM
    228         76  C    CARTESIAN Z    -0.796512    -0.097705  KCAL/ANGSTROM
    229         77  C    CARTESIAN X   -17.567172     0.114642  KCAL/ANGSTROM
    230         77  C    CARTESIAN Y    -6.826558    -0.940883  KCAL/ANGSTROM
    231         77  C    CARTESIAN Z    -0.758692    -0.494555  KCAL/ANGSTROM
    232         78  C    CARTESIAN X   -17.151246    -0.685295  KCAL/ANGSTROM
    233         78  C    CARTESIAN Y    -5.370098     0.108977  KCAL/ANGSTROM
    234         78  C    CARTESIAN Z    -0.504057    -0.149532  KCAL/ANGSTROM
    235         79  C    CARTESIAN X   -15.622518     0.905800  KCAL/ANGSTROM
    236         79  C    CARTESIAN Y    -5.215370    -0.943444  KCAL/ANGSTROM
    237         79  C    CARTESIAN Z    -0.479492    -0.050989  KCAL/ANGSTROM
    238         80  C    CARTESIAN X   -15.235102    -0.315013  KCAL/ANGSTROM
    239         80  C    CARTESIAN Y    -3.753786     0.404510  KCAL/ANGSTROM
    240         80  C    CARTESIAN Z    -0.200486     0.087180  KCAL/ANGSTROM
    241         81  C    CARTESIAN X   -13.712033    -0.432723  KCAL/ANGSTROM
    242         81  C    CARTESIAN Y    -3.563527     0.098809  KCAL/ANGSTROM
    243         81  C    CARTESIAN Z    -0.251391    -0.083535  KCAL/ANGSTROM
    244         82  C    CARTESIAN X   -13.325792     0.487167  KCAL/ANGSTROM
    245         82  C    CARTESIAN Y    -2.104162     0.282677  KCAL/ANGSTROM
    246         82  C    CARTESIAN Z     0.032148    -0.265371  KCAL/ANGSTROM
    247         83  C    CARTESIAN X   -11.830173     0.869394  KCAL/ANGSTROM
    248         83  C    CARTESIAN Y    -1.863051    -0.774018  KCAL/ANGSTROM
    249         83  C    CARTESIAN Z    -0.224507     0.674098  KCAL/ANGSTROM
    250         84  C    CARTESIAN X   -11.439515     1.200077  KCAL/ANGSTROM
    251         84  C    CARTESIAN Y    -0.436059    -0.485274  KCAL/ANGSTROM
    252         84  C    CARTESIAN Z     0.189909    -0.171940  KCAL/ANGSTROM
    253         85  C    CARTESIAN X    -9.997051     0.194084  KCAL/ANGSTROM
    254         85  C    CARTESIAN Y    -0.093157    -0.666529  KCAL/ANGSTROM
    255         85  C    CARTESIAN Z    -0.216040     0.501288  KCAL/ANGSTROM
    256         86  C    CARTESIAN X    -9.314779    -0.139772  KCAL/ANGSTROM
    257         86  C    CARTESIAN Y     0.754677    -0.137028  KCAL/ANGSTROM
    258         86  C    CARTESIAN Z     0.870881    -0.198688  KCAL/ANGSTROM
    259         87  C    CARTESIAN X   -19.243774    -0.713125  KCAL/ANGSTROM
    260         87  C    CARTESIAN Y    11.656804     0.216059  KCAL/ANGSTROM
    261         87  C    CARTESIAN Z    -0.096718     0.276691  KCAL/ANGSTROM
    262         88  C    CARTESIAN X   -17.752296    -0.200513  KCAL/ANGSTROM
    263         88  C    CARTESIAN Y    11.997021     0.663422  KCAL/ANGSTROM
    264         88  C    CARTESIAN Z    -0.095532     0.256941  KCAL/ANGSTROM
    265         89  C    CARTESIAN X   -16.895323     0.262995  KCAL/ANGSTROM
    266         89  C    CARTESIAN Y    10.724979    -0.008280  KCAL/ANGSTROM
    267         89  C    CARTESIAN Z    -0.010013    -0.527126  KCAL/ANGSTROM
    268         90  C    CARTESIAN X   -15.399740     1.487101  KCAL/ANGSTROM
    269         90  C    CARTESIAN Y    11.069812    -0.028049  KCAL/ANGSTROM
    270         90  C    CARTESIAN Z    -0.018470     0.284895  KCAL/ANGSTROM
    271         91  C    CARTESIAN X   -14.542585     0.155622  KCAL/ANGSTROM
    272         91  C    CARTESIAN Y     9.799850    -1.053040  KCAL/ANGSTROM
    273         91  C    CARTESIAN Z     0.066705    -0.470539  KCAL/ANGSTROM
    274         92  C    CARTESIAN X   -13.052353     1.570817  KCAL/ANGSTROM
    275         92  C    CARTESIAN Y    10.166024    -0.643097  KCAL/ANGSTROM
    276         92  C    CARTESIAN Z     0.054324     0.217101  KCAL/ANGSTROM
    277         93  C    CARTESIAN X   -12.183824     0.509958  KCAL/ANGSTROM
    278         93  C    CARTESIAN Y     8.907999    -0.990054  KCAL/ANGSTROM
    279         93  C    CARTESIAN Z     0.139175    -0.212176  KCAL/ANGSTROM
    280         94  C    CARTESIAN X   -10.696386     1.879679  KCAL/ANGSTROM
    281         94  C    CARTESIAN Y     9.283140    -0.437869  KCAL/ANGSTROM
    282         94  C    CARTESIAN Z     0.125219    -0.107528  KCAL/ANGSTROM
    283         95  C    CARTESIAN X    -9.850671     0.490302  KCAL/ANGSTROM
    284         95  C    CARTESIAN Y     8.012673    -1.068188  KCAL/ANGSTROM
    285         95  C    CARTESIAN Z     0.209766     0.224333  KCAL/ANGSTROM
    286         96  C    CARTESIAN X    -8.353688     0.578873  KCAL/ANGSTROM
    287         96  C    CARTESIAN Y     8.340056     0.815718  KCAL/ANGSTROM
    288         96  C    CARTESIAN Z     0.196873    -0.196479  KCAL/ANGSTROM
    289         97  C    CARTESIAN X    -7.583868    -0.687620  KCAL/ANGSTROM
    290         97  C    CARTESIAN Y     7.020120     0.685301  KCAL/ANGSTROM
    291         97  C    CARTESIAN Z     0.270731     0.570512  KCAL/ANGSTROM
    292         98  C    CARTESIAN X    -6.072448    -0.977592  KCAL/ANGSTROM
    293         98  C    CARTESIAN Y     7.240327    -1.146333  KCAL/ANGSTROM
    294         98  C    CARTESIAN Z     0.265978    -0.252750  KCAL/ANGSTROM
    295         99  H    CARTESIAN X     1.650089    -0.312203  KCAL/ANGSTROM
    296         99  H    CARTESIAN Y    -4.570585     0.123988  KCAL/ANGSTROM
    297         99  H    CARTESIAN Z     0.915523    -0.176492  KCAL/ANGSTROM
    298        100  H    CARTESIAN X     6.612309    -0.508843  KCAL/ANGSTROM
    299        100  H    CARTESIAN Y    -4.375072     0.174488  KCAL/ANGSTROM
    300        100  H    CARTESIAN Z     0.886956     0.286151  KCAL/ANGSTROM
    301        101  H    CARTESIAN X     7.482762    -0.377315  KCAL/ANGSTROM
    302        101  H    CARTESIAN Y    -2.733716    -0.312588  KCAL/ANGSTROM
    303        101  H    CARTESIAN Z     0.901528     0.185209  KCAL/ANGSTROM
    304        102  H    CARTESIAN X     4.786167    -0.765380  KCAL/ANGSTROM
    305        102  H    CARTESIAN Y     1.422459    -0.040852  KCAL/ANGSTROM
    306        102  H    CARTESIAN Z     0.779946    -0.095536  KCAL/ANGSTROM
    307        103  H    CARTESIAN X     1.025622    -0.112845  KCAL/ANGSTROM
    308        103  H    CARTESIAN Y     2.432417    -0.509980  KCAL/ANGSTROM
    309        103  H    CARTESIAN Z     0.608186    -0.299817  KCAL/ANGSTROM
    310        104  H    CARTESIAN X    -1.328009    -0.115245  KCAL/ANGSTROM
    311        104  H    CARTESIAN Y    -2.042721     0.370129  KCAL/ANGSTROM
    312        104  H    CARTESIAN Z     0.828055    -0.188615  KCAL/ANGSTROM
    313        105  H    CARTESIAN X    -7.846399     0.032619  KCAL/ANGSTROM
    314        105  H    CARTESIAN Y     2.986091     0.435223  KCAL/ANGSTROM
    315        105  H    CARTESIAN Z     0.526959     0.089982  KCAL/ANGSTROM
    316        106  H    CARTESIAN X    -5.023788     0.511521  KCAL/ANGSTROM
    317        106  H    CARTESIAN Y    -1.094273    -0.067296  KCAL/ANGSTROM
    318        106  H    CARTESIAN Z     0.792145    -0.095277  KCAL/ANGSTROM
    319        107  H    CARTESIAN X    -2.028189     0.126437  KCAL/ANGSTROM
    320        107  H    CARTESIAN Y     4.949139    -0.294671  KCAL/ANGSTROM
    321        107  H    CARTESIAN Z     0.438981    -0.114568  KCAL/ANGSTROM
    322        108  H    CARTESIAN X    -6.986455     0.128750  KCAL/ANGSTROM
    323        108  H    CARTESIAN Y     4.653678    -0.064035  KCAL/ANGSTROM
    324        108  H    CARTESIAN Z     0.389708     0.201996  KCAL/ANGSTROM
    325        109  H    CARTESIAN X    -8.344324    -0.201523  KCAL/ANGSTROM
    326        109  H    CARTESIAN Y    -4.513497    -0.079883  KCAL/ANGSTROM
    327        109  H    CARTESIAN Z     2.148278    -0.984718  KCAL/ANGSTROM
    328        110  H    CARTESIAN X    -7.913671     0.163224  KCAL/ANGSTROM
    329        110  H    CARTESIAN Y    -4.775870     0.035619  KCAL/ANGSTROM
    330        110  H    CARTESIAN Z     0.446918     0.030189  KCAL/ANGSTROM
    331        111  H    CARTESIAN X    -9.531359     0.107838  KCAL/ANGSTROM
    332        111  H    CARTESIAN Y    -4.171524     0.153496  KCAL/ANGSTROM
    333        111  H    CARTESIAN Z     0.873209    -0.088419  KCAL/ANGSTROM
    334        112  H    CARTESIAN X    -1.511637     0.078326  KCAL/ANGSTROM
    335        112  H    CARTESIAN Y     9.884590    -0.061629  KCAL/ANGSTROM
    336        112  H    CARTESIAN Z     1.187644    -0.255417  KCAL/ANGSTROM
    337        113  H    CARTESIAN X    -2.638732     0.214874  KCAL/ANGSTROM
    338        113  H    CARTESIAN Y    10.460666     0.083393  KCAL/ANGSTROM
    339        113  H    CARTESIAN Z    -0.059702    -0.075244  KCAL/ANGSTROM
    340        114  H    CARTESIAN X    -1.145466     0.025823  KCAL/ANGSTROM
    341        114  H    CARTESIAN Y     9.621123     0.079941  KCAL/ANGSTROM
    342        114  H    CARTESIAN Z    -0.528547     0.193160  KCAL/ANGSTROM
    343        115  H    CARTESIAN X     1.489147     0.259231  KCAL/ANGSTROM
    344        115  H    CARTESIAN Y    -9.693623     0.365155  KCAL/ANGSTROM
    345        115  H    CARTESIAN Z     2.005622     0.141214  KCAL/ANGSTROM
    346        116  H    CARTESIAN X     1.915173     0.124814  KCAL/ANGSTROM
    347        116  H    CARTESIAN Y    -9.981485    -0.041159  KCAL/ANGSTROM
    348        116  H    CARTESIAN Z     0.303424    -0.075479  KCAL/ANGSTROM
    349        117  H    CARTESIAN X     0.421750    -0.237567  KCAL/ANGSTROM
    350        117  H    CARTESIAN Y    -9.106424     0.194246  KCAL/ANGSTROM
    351        117  H    CARTESIAN Z     0.710395    -0.058994  KCAL/ANGSTROM
    352        118  H    CARTESIAN X     8.578479     0.028953  KCAL/ANGSTROM
    353        118  H    CARTESIAN Y     4.693260     0.464322  KCAL/ANGSTROM
    354        118  H    CARTESIAN Z     1.775129    -0.095346  KCAL/ANGSTROM
    355        119  H    CARTESIAN X     7.520524     1.466292  KCAL/ANGSTROM
    356        119  H    CARTESIAN Y     5.114169    -0.690028  KCAL/ANGSTROM
    357        119  H    CARTESIAN Z     0.420094     1.016953  KCAL/ANGSTROM
    358        120  H    CARTESIAN X     9.136194     0.840328  KCAL/ANGSTROM
    359        120  H    CARTESIAN Y     4.446982     0.342957  KCAL/ANGSTROM
    360        120  H    CARTESIAN Z     0.105548    -0.469328  KCAL/ANGSTROM
    361        121  H    CARTESIAN X    19.308760     0.437466  KCAL/ANGSTROM
    362        121  H    CARTESIAN Y   -12.611561    -0.186352  KCAL/ANGSTROM
    363        121  H    CARTESIAN Z     0.706641    -0.028172  KCAL/ANGSTROM
    364        122  H    CARTESIAN X    19.026968     0.346817  KCAL/ANGSTROM
    365        122  H    CARTESIAN Y   -11.101801    -0.005336  KCAL/ANGSTROM
    366        122  H    CARTESIAN Z     1.579570    -0.114907  KCAL/ANGSTROM
    367        123  H    CARTESIAN X    18.985490     0.396170  KCAL/ANGSTROM
    368        123  H    CARTESIAN Y   -11.121625     0.158149  KCAL/ANGSTROM
    369        123  H    CARTESIAN Z    -0.186153    -0.081619  KCAL/ANGSTROM
    370        124  H    CARTESIAN X    16.937628    -0.200953  KCAL/ANGSTROM
    371        124  H    CARTESIAN Y   -12.629595    -0.386744  KCAL/ANGSTROM
    372        124  H    CARTESIAN Z    -0.116651    -0.312095  KCAL/ANGSTROM
    373        125  H    CARTESIAN X    16.973803    -0.375522  KCAL/ANGSTROM
    374        125  H    CARTESIAN Y   -12.595598    -0.478140  KCAL/ANGSTROM
    375        125  H    CARTESIAN Z     1.649029     0.559244  KCAL/ANGSTROM
    376        126  H    CARTESIAN X    16.665782    -0.120369  KCAL/ANGSTROM
    377        126  H    CARTESIAN Y   -10.074105    -0.261887  KCAL/ANGSTROM
    378        126  H    CARTESIAN Z     1.604128    -0.454974  KCAL/ANGSTROM
    379        127  H    CARTESIAN X    16.626138    -0.072175  KCAL/ANGSTROM
    380        127  H    CARTESIAN Y   -10.109448    -0.074455  KCAL/ANGSTROM
    381        127  H    CARTESIAN Z    -0.158531     0.216794  KCAL/ANGSTROM
    382        128  H    CARTESIAN X    14.606118    -0.169964  KCAL/ANGSTROM
    383        128  H    CARTESIAN Y   -11.648608    -0.020353  KCAL/ANGSTROM
    384        128  H    CARTESIAN Z    -0.082995     0.184135  KCAL/ANGSTROM
    385        129  H    CARTESIAN X    14.644142    -0.169233  KCAL/ANGSTROM
    386        129  H    CARTESIAN Y   -11.610771    -0.240098  KCAL/ANGSTROM
    387        129  H    CARTESIAN Z     1.680946     0.176282  KCAL/ANGSTROM
    388        130  H    CARTESIAN X    14.330545     0.047803  KCAL/ANGSTROM
    389        130  H    CARTESIAN Y    -9.089040     0.098192  KCAL/ANGSTROM
    390        130  H    CARTESIAN Z     1.632634    -0.165971  KCAL/ANGSTROM
    391        131  H    CARTESIAN X    14.294467     0.172834  KCAL/ANGSTROM
    392        131  H    CARTESIAN Y    -9.126638     0.326047  KCAL/ANGSTROM
    393        131  H    CARTESIAN Z    -0.131234    -0.163351  KCAL/ANGSTROM
    394        132  H    CARTESIAN X    12.286861    -0.024757  KCAL/ANGSTROM
    395        132  H    CARTESIAN Y   -10.686284     0.100703  KCAL/ANGSTROM
    396        132  H    CARTESIAN Z    -0.055113     0.193974  KCAL/ANGSTROM
    397        133  H    CARTESIAN X    12.326621     0.095253  KCAL/ANGSTROM
    398        133  H    CARTESIAN Y   -10.648032     0.068613  KCAL/ANGSTROM
    399        133  H    CARTESIAN Z     1.709450    -0.062038  KCAL/ANGSTROM
    400        134  H    CARTESIAN X    11.994361     0.042854  KCAL/ANGSTROM
    401        134  H    CARTESIAN Y    -8.130507     0.119779  KCAL/ANGSTROM
    402        134  H    CARTESIAN Z     1.661209    -0.134237  KCAL/ANGSTROM
    403        135  H    CARTESIAN X    11.955217     0.129636  KCAL/ANGSTROM
    404        135  H    CARTESIAN Y    -8.168850     0.381388  KCAL/ANGSTROM
    405        135  H    CARTESIAN Z    -0.102948    -0.205234  KCAL/ANGSTROM
    406        136  H    CARTESIAN X     9.950985    -0.004887  KCAL/ANGSTROM
    407        136  H    CARTESIAN Y    -9.734629     0.070843  KCAL/ANGSTROM
    408        136  H    CARTESIAN Z    -0.023924     0.266000  KCAL/ANGSTROM
    409        137  H    CARTESIAN X     9.995153     0.068954  KCAL/ANGSTROM
    410        137  H    CARTESIAN Y    -9.703111    -0.064784  KCAL/ANGSTROM
    411        137  H    CARTESIAN Z     1.739602    -0.025543  KCAL/ANGSTROM
    412        138  H    CARTESIAN X     9.705090     0.238869  KCAL/ANGSTROM
    413        138  H    CARTESIAN Y    -7.178935     0.530681  KCAL/ANGSTROM
    414        138  H    CARTESIAN Z     1.701870     0.537311  KCAL/ANGSTROM
    415        139  H    CARTESIAN X     9.656128    -0.273370  KCAL/ANGSTROM
    416        139  H    CARTESIAN Y    -7.214415     0.005807  KCAL/ANGSTROM
    417        139  H    CARTESIAN Z    -0.065618    -0.104045  KCAL/ANGSTROM
    418        140  H    CARTESIAN X     7.607810     0.077899  KCAL/ANGSTROM
    419        140  H    CARTESIAN Y    -8.708887     0.052064  KCAL/ANGSTROM
    420        140  H    CARTESIAN Z     0.011612     0.056140  KCAL/ANGSTROM
    421        141  H    CARTESIAN X     7.656954     0.245343  KCAL/ANGSTROM
    422        141  H    CARTESIAN Y    -8.695547    -0.256280  KCAL/ANGSTROM
    423        141  H    CARTESIAN Z     1.775529    -0.010192  KCAL/ANGSTROM
    424        142  H    CARTESIAN X     7.490708     0.248778  KCAL/ANGSTROM
    425        142  H    CARTESIAN Y    -6.168249    -0.075339  KCAL/ANGSTROM
    426        142  H    CARTESIAN Z     1.770187     0.415264  KCAL/ANGSTROM
    427        143  H    CARTESIAN X     7.454806    -0.073430  KCAL/ANGSTROM
    428        143  H    CARTESIAN Y    -6.179598    -0.364605  KCAL/ANGSTROM
    429        143  H    CARTESIAN Z    -0.011417    -0.081110  KCAL/ANGSTROM
    430        144  H    CARTESIAN X     5.329221    -0.155666  KCAL/ANGSTROM
    431        144  H    CARTESIAN Y    -7.566771     0.193634  KCAL/ANGSTROM
    432        144  H    CARTESIAN Z     0.052069     0.016289  KCAL/ANGSTROM
    433        145  H    CARTESIAN X     5.363828     0.175450  KCAL/ANGSTROM
    434        145  H    CARTESIAN Y    -7.537438     0.640653  KCAL/ANGSTROM
    435        145  H    CARTESIAN Z     1.815930    -0.148084  KCAL/ANGSTROM
    436        146  H    CARTESIAN X    20.657597    -0.035036  KCAL/ANGSTROM
    437        146  H    CARTESIAN Y     8.545959     0.060311  KCAL/ANGSTROM
    438        146  H    CARTESIAN Z     0.844929    -0.136907  KCAL/ANGSTROM
    439        147  H    CARTESIAN X    19.197878    -0.100976  KCAL/ANGSTROM
    440        147  H    CARTESIAN Y     9.040325     0.195850  KCAL/ANGSTROM
    441        147  H    CARTESIAN Z     1.711485    -0.193016  KCAL/ANGSTROM
    442        148  H    CARTESIAN X    19.207139     0.185645  KCAL/ANGSTROM
    443        148  H    CARTESIAN Y     9.000960    -0.084458  KCAL/ANGSTROM
    444        148  H    CARTESIAN Z    -0.053190     0.411102  KCAL/ANGSTROM
    445        149  H    CARTESIAN X    19.511620    -0.565069  KCAL/ANGSTROM
    446        149  H    CARTESIAN Y     6.476519     0.316382  KCAL/ANGSTROM
    447        149  H    CARTESIAN Z     0.011829     1.077651  KCAL/ANGSTROM
    448        150  H    CARTESIAN X    19.486085     0.223993  KCAL/ANGSTROM
    449        150  H    CARTESIAN Y     6.522490    -0.123032  KCAL/ANGSTROM
    450        150  H    CARTESIAN Z     1.773728    -0.152585  KCAL/ANGSTROM
    451        151  H    CARTESIAN X    17.134889     0.026678  KCAL/ANGSTROM
    452        151  H    CARTESIAN Y     7.489996     0.030179  KCAL/ANGSTROM
    453        151  H    CARTESIAN Z     1.710326    -0.240105  KCAL/ANGSTROM
    454        152  H    CARTESIAN X    17.164447     0.058446  KCAL/ANGSTROM
    455        152  H    CARTESIAN Y     7.445912    -0.096238  KCAL/ANGSTROM
    456        152  H    CARTESIAN Z    -0.052509     0.165562  KCAL/ANGSTROM
    457        153  H    CARTESIAN X    17.541049    -0.103594  KCAL/ANGSTROM
    458        153  H    CARTESIAN Y     4.935378     0.098683  KCAL/ANGSTROM
    459        153  H    CARTESIAN Z     0.015067     0.319012  KCAL/ANGSTROM
    460        154  H    CARTESIAN X    17.507469    -0.134753  KCAL/ANGSTROM
    461        154  H    CARTESIAN Y     4.978503     0.013401  KCAL/ANGSTROM
    462        154  H    CARTESIAN Z     1.779281    -0.172238  KCAL/ANGSTROM
    463        155  H    CARTESIAN X    15.137358     0.055423  KCAL/ANGSTROM
    464        155  H    CARTESIAN Y     5.889439    -0.082556  KCAL/ANGSTROM
    465        155  H    CARTESIAN Z     1.711843    -0.332641  KCAL/ANGSTROM
    466        156  H    CARTESIAN X    15.169599    -0.109391  KCAL/ANGSTROM
    467        156  H    CARTESIAN Y     5.845342    -0.003278  KCAL/ANGSTROM
    468        156  H    CARTESIAN Z    -0.051517     0.169987  KCAL/ANGSTROM
    469        157  H    CARTESIAN X    15.627927    -0.104786  KCAL/ANGSTROM
    470        157  H    CARTESIAN Y     3.344577     0.123564  KCAL/ANGSTROM
    471        157  H    CARTESIAN Z     0.020475     0.348457  KCAL/ANGSTROM
    472        158  H    CARTESIAN X    15.591421    -0.063379  KCAL/ANGSTROM
    473        158  H    CARTESIAN Y     3.389355     0.028161  KCAL/ANGSTROM
    474        158  H    CARTESIAN Z     1.784114    -0.144577  KCAL/ANGSTROM
    475        159  H    CARTESIAN X    13.204104     0.028847  KCAL/ANGSTROM
    476        159  H    CARTESIAN Y     4.244708    -0.142838  KCAL/ANGSTROM
    477        159  H    CARTESIAN Z     1.713999    -0.307328  KCAL/ANGSTROM
    478        160  H    CARTESIAN X    13.240931    -0.063602  KCAL/ANGSTROM
    479        160  H    CARTESIAN Y     4.201517    -0.157602  KCAL/ANGSTROM
    480        160  H    CARTESIAN Z    -0.051114     0.099323  KCAL/ANGSTROM
    481        161  H    CARTESIAN X    13.707595    -0.005614  KCAL/ANGSTROM
    482        161  H    CARTESIAN Y     1.700362     0.028452  KCAL/ANGSTROM
    483        161  H    CARTESIAN Z     0.022098     0.283669  KCAL/ANGSTROM
    484        162  H    CARTESIAN X    13.662471    -0.133436  KCAL/ANGSTROM
    485        162  H    CARTESIAN Y     1.743519    -0.084267  KCAL/ANGSTROM
    486        162  H    CARTESIAN Z     1.784624    -0.144617  KCAL/ANGSTROM
    487        163  H    CARTESIAN X    11.302890    -0.564051  KCAL/ANGSTROM
    488        163  H    CARTESIAN Y     2.671387     0.779417  KCAL/ANGSTROM
    489        163  H    CARTESIAN Z     1.708467     1.008491  KCAL/ANGSTROM
    490        164  H    CARTESIAN X    11.345313     0.050867  KCAL/ANGSTROM
    491        164  H    CARTESIAN Y     2.628337     0.082802  KCAL/ANGSTROM
    492        164  H    CARTESIAN Z    -0.059708     0.078265  KCAL/ANGSTROM
    493        165  H    CARTESIAN X    11.656435     0.152738  KCAL/ANGSTROM
    494        165  H    CARTESIAN Y     0.107633    -0.035881  KCAL/ANGSTROM
    495        165  H    CARTESIAN Z     0.002464     0.038694  KCAL/ANGSTROM
    496        166  H    CARTESIAN X    11.633819    -0.162057  KCAL/ANGSTROM
    497        166  H    CARTESIAN Y     0.142894     0.033158  KCAL/ANGSTROM
    498        166  H    CARTESIAN Z     1.766922    -0.139429  KCAL/ANGSTROM
    499        167  H    CARTESIAN X     9.390756    -0.208629  KCAL/ANGSTROM
    500        167  H    CARTESIAN Y     1.284867     0.715215  KCAL/ANGSTROM
    501        167  H    CARTESIAN Z     1.734947     0.439398  KCAL/ANGSTROM
    502        168  H    CARTESIAN X     9.412826     0.207147  KCAL/ANGSTROM
    503        168  H    CARTESIAN Y     1.252511    -0.067619  KCAL/ANGSTROM
    504        168  H    CARTESIAN Z    -0.058135     0.355656  KCAL/ANGSTROM
    505        169  H    CARTESIAN X     9.391313    -0.435748  KCAL/ANGSTROM
    506        169  H    CARTESIAN Y    -1.257016     0.078432  KCAL/ANGSTROM
    507        169  H    CARTESIAN Z    -0.011646    -0.269578  KCAL/ANGSTROM
    508        170  H    CARTESIAN X     9.379623     0.217019  KCAL/ANGSTROM
    509        170  H    CARTESIAN Y    -1.235522    -0.128081  KCAL/ANGSTROM
    510        170  H    CARTESIAN Z     1.760105     0.069789  KCAL/ANGSTROM
    511        171  H    CARTESIAN X   -20.628257    -0.760974  KCAL/ANGSTROM
    512        171  H    CARTESIAN Y    -8.482053    -0.468005  KCAL/ANGSTROM
    513        171  H    CARTESIAN Z    -1.070443     0.014643  KCAL/ANGSTROM
    514        172  H    CARTESIAN X   -19.188415    -0.367747  KCAL/ANGSTROM
    515        172  H    CARTESIAN Y    -9.055061    -0.058267  KCAL/ANGSTROM
    516        172  H    CARTESIAN Z    -0.224469    -0.125606  KCAL/ANGSTROM
    517        173  H    CARTESIAN X   -19.139176    -0.142611  KCAL/ANGSTROM
    518        173  H    CARTESIAN Y    -8.790056    -0.119102  KCAL/ANGSTROM
    519        173  H    CARTESIAN Z    -1.970715     0.102633  KCAL/ANGSTROM
    520        174  H    CARTESIAN X   -19.507333     0.116878  KCAL/ANGSTROM
    521        174  H    CARTESIAN Y    -6.300832    -0.095844  KCAL/ANGSTROM
    522        174  H    CARTESIAN Z    -1.593268     0.286562  KCAL/ANGSTROM
    523        175  H    CARTESIAN X   -19.530745    -0.080402  KCAL/ANGSTROM
    524        175  H    CARTESIAN Y    -6.575128    -0.135420  KCAL/ANGSTROM
    525        175  H    CARTESIAN Z     0.150263    -0.188039  KCAL/ANGSTROM
    526        176  H    CARTESIAN X   -17.154100    -0.034110  KCAL/ANGSTROM
    527        176  H    CARTESIAN Y    -7.483562    -0.071242  KCAL/ANGSTROM
    528        176  H    CARTESIAN Z     0.028125    -0.056564  KCAL/ANGSTROM
    529        177  H    CARTESIAN X   -17.135773    -0.118793  KCAL/ANGSTROM
    530        177  H    CARTESIAN Y    -7.185663    -0.057406  KCAL/ANGSTROM
    531        177  H    CARTESIAN Z    -1.710110     0.302546  KCAL/ANGSTROM
    532        178  H    CARTESIAN X   -17.581593    -0.081918  KCAL/ANGSTROM
    533        178  H    CARTESIAN Y    -4.715087     0.112966  KCAL/ANGSTROM
    534        178  H    CARTESIAN Z    -1.284814    -0.063081  KCAL/ANGSTROM
    535        179  H    CARTESIAN X   -17.577813     0.109051  KCAL/ANGSTROM
    536        179  H    CARTESIAN Y    -5.021173    -0.057522  KCAL/ANGSTROM
    537        179  H    CARTESIAN Z     0.454659    -0.092674  KCAL/ANGSTROM
    538        180  H    CARTESIAN X   -15.185769     0.021535  KCAL/ANGSTROM
    539        180  H    CARTESIAN Y    -5.877336    -0.070344  KCAL/ANGSTROM
    540        180  H    CARTESIAN Z     0.289961    -0.013601  KCAL/ANGSTROM
    541        181  H    CARTESIAN X   -15.194417     0.003816  KCAL/ANGSTROM
    542        181  H    CARTESIAN Y    -5.544886    -0.093886  KCAL/ANGSTROM
    543        181  H    CARTESIAN Z    -1.443686     0.044621  KCAL/ANGSTROM
    544        182  H    CARTESIAN X   -15.721907    -0.109108  KCAL/ANGSTROM
    545        182  H    CARTESIAN Y    -3.089479     0.006928  KCAL/ANGSTROM
    546        182  H    CARTESIAN Z    -0.938692     0.052854  KCAL/ANGSTROM
    547        183  H    CARTESIAN X   -15.622676    -0.210279  KCAL/ANGSTROM
    548        183  H    CARTESIAN Y    -3.443887     0.096133  KCAL/ANGSTROM
    549        183  H    CARTESIAN Z     0.787797     0.124118  KCAL/ANGSTROM
    550        184  H    CARTESIAN X   -13.224839    -0.129776  KCAL/ANGSTROM
    551        184  H    CARTESIAN Y    -4.227333     0.446112  KCAL/ANGSTROM
    552        184  H    CARTESIAN Z     0.486424     0.328914  KCAL/ANGSTROM
    553        185  H    CARTESIAN X   -13.328230     0.129340  KCAL/ANGSTROM
    554        185  H    CARTESIAN Y    -3.872117    -0.149793  KCAL/ANGSTROM
    555        185  H    CARTESIAN Z    -1.241430     0.089409  KCAL/ANGSTROM
    556        186  H    CARTESIAN X   -13.927432    -0.179887  KCAL/ANGSTROM
    557        186  H    CARTESIAN Y    -1.421599     0.491481  KCAL/ANGSTROM
    558        186  H    CARTESIAN Z    -0.597334     0.147863  KCAL/ANGSTROM
    559        187  H    CARTESIAN X   -13.578177    -0.202747  KCAL/ANGSTROM
    560        187  H    CARTESIAN Y    -1.847655     0.199501  KCAL/ANGSTROM
    561        187  H    CARTESIAN Z     1.078699     0.438208  KCAL/ANGSTROM
    562        188  H    CARTESIAN X   -11.222957    -0.165643  KCAL/ANGSTROM
    563        188  H    CARTESIAN Y    -2.597738    -0.023483  KCAL/ANGSTROM
    564        188  H    CARTESIAN Z     0.334647    -0.144426  KCAL/ANGSTROM
    565        189  H    CARTESIAN X   -11.598604     0.158115  KCAL/ANGSTROM
    566        189  H    CARTESIAN Y    -2.025095     0.001690  KCAL/ANGSTROM
    567        189  H    CARTESIAN Z    -1.293128     0.149391  KCAL/ANGSTROM
    568        190  H    CARTESIAN X   -12.138548    -0.081260  KCAL/ANGSTROM
    569        190  H    CARTESIAN Y     0.290885    -0.313425  KCAL/ANGSTROM
    570        190  H    CARTESIAN Z    -0.262933    -0.056645  KCAL/ANGSTROM
[...]
   34          C          -0.076299        4.0763     1.09405     2.98225
   35          C          -0.068792        4.0688     1.09296     2.97583
   36          C          -0.018586        4.0186     1.03999     2.97860
   37          C           0.069042        3.9310     1.07669     2.85427
   38          C          -0.201054        4.2011     1.07965     3.12141
   39          C          -0.126590        4.1266     1.08297     3.04362
   40          C          -0.132751        4.1328     1.08249     3.05026
   41          C          -0.041298        4.0413     1.09395     2.94735
   42          C          -0.403715        4.4037     1.03268     3.37104
   43          C          -0.037645        4.0376     1.09351     2.94414
   44          C          -0.405472        4.4055     1.03237     3.37311
   45          C          -0.133002        4.1330     1.08235     3.05065
   46          C          -0.037888        4.0379     1.09368     2.94421
   47          C          -0.405196        4.4052     1.03280     3.37240
   48          C          -0.120848        4.1208     1.08332     3.03752
   49          C          -0.049950        4.0500     1.09300     2.95695
   50          C          -0.403013        4.4030     1.03205     3.37096
   51          C          -0.439614        4.4396     1.05229     3.38732
   52          C          -0.250413        4.2504     1.05584     3.19457
   53          C          -0.272447        4.2724     1.05998     3.21247
   54          C          -0.274434        4.2744     1.06025     3.21418
   55          C          -0.272065        4.2721     1.06010     3.21197
   56          C          -0.271846        4.2718     1.05963     3.21222
   57          C          -0.273565        4.2736     1.05993     3.21363
   58          C          -0.275608        4.2756     1.05934     3.21627
   59          C          -0.274007        4.2740     1.06014     3.21387
   60          C          -0.272442        4.2724     1.05942     3.21303
   61          C          -0.265769        4.2658     1.05958     3.20619
   62          C          -0.297859        4.2979     1.05619     3.24167
   63          C          -0.439721        4.4397     1.05191     3.38781
   64          C          -0.250698        4.2507     1.05543     3.19527
   65          C          -0.271983        4.2720     1.06009     3.21190
   66          C          -0.274803        4.2748     1.06022     3.21458
   67          C          -0.271953        4.2720     1.06002     3.21193
   68          C          -0.273468        4.2735     1.05982     3.21365
   69          C          -0.272336        4.2723     1.06001     3.21233
   70          C          -0.273489        4.2735     1.05932     3.21417
   71          C          -0.270677        4.2707     1.06115     3.20952
   72          C          -0.274241        4.2742     1.05924     3.21500
   73          C          -0.281250        4.2813     1.06110     3.22015
   74          C          -0.290327        4.2903     1.05636     3.23397
   75          C          -0.439791        4.4398     1.05213     3.38766
   76          C          -0.250534        4.2505     1.05568     3.19486
   77          C          -0.271886        4.2719     1.06035     3.21153
   78          C          -0.274487        4.2745     1.06070     3.21379
   79          C          -0.272185        4.2722     1.06053     3.21165
   80          C          -0.272348        4.2723     1.06062     3.21173
   81          C          -0.272188        4.2722     1.06012     3.21207
   82          C          -0.273792        4.2738     1.06070     3.21309
   83          C          -0.270007        4.2700     1.06089     3.20912
   84          C          -0.273758        4.2738     1.06081     3.21295
   85          C          -0.268145        4.2681     1.06001     3.20814
   86          C          -0.292619        4.2926     1.05829     3.23433
   87          C          -0.439831        4.4398     1.05209     3.38774
   88          C          -0.250601        4.2506     1.05579     3.19481
   89          C          -0.272340        4.2723     1.06037     3.21197
   90          C          -0.274301        4.2743     1.06023     3.21407
   91          C          -0.271882        4.2719     1.06008     3.21180
   92          C          -0.271890        4.2719     1.05970     3.21219
   93          C          -0.273635        4.2736     1.05983     3.21380
   94          C          -0.276002        4.2760     1.05940     3.21661
   95          C          -0.273924        4.2739     1.05986     3.21406
   96          C          -0.272140        4.2721     1.05918     3.21296
   97          C          -0.265637        4.2656     1.05924     3.20640
   98          C          -0.298586        4.2986     1.05669     3.24190
   99          H           0.190904        0.8091     0.80910
  100          H           0.164289        0.8357     0.83571
  101          H           0.159910        0.8401     0.84009
  102          H           0.191765        0.8082     0.80823
  103          H           0.201739        0.7983     0.79826
  104          H           0.202309        0.7977     0.79769
  105          H           0.160594        0.8394     0.83941
  106          H           0.192239        0.8078     0.80776
  107          H           0.190548        0.8095     0.80945
  108          H           0.164688        0.8353     0.83531
  109          H           0.169897        0.8301     0.83010
  110          H           0.170365        0.8296     0.82963
  111          H           0.166511        0.8335     0.83349
  112          H           0.169847        0.8302     0.83015
  113          H           0.167003        0.8330     0.83300
  114          H           0.170134        0.8299     0.82987
  115          H           0.169002        0.8310     0.83100
  116          H           0.167790        0.8322     0.83221
  117          H           0.170215        0.8298     0.82978
  118          H           0.168883        0.8311     0.83112
  119          H           0.169830        0.8302     0.83017
  120          H           0.167278        0.8327     0.83272
  121          H           0.140086        0.8599     0.85991
  122          H           0.142131        0.8579     0.85787
  123          H           0.142239        0.8578     0.85776
  124          H           0.133454        0.8665     0.86655
  125          H           0.133527        0.8665     0.86647
  126          H           0.136364        0.8636     0.86364
  127          H           0.136373        0.8636     0.86363
  128          H           0.136310        0.8637     0.86369
  129          H           0.136298        0.8637     0.86370
  130          H           0.136245        0.8638     0.86375
  131          H           0.136357        0.8636     0.86364
  132          H           0.136812        0.8632     0.86319
  133          H           0.136731        0.8633     0.86327
  134          H           0.136028        0.8640     0.86397
  135          H           0.136246        0.8638     0.86375
  136          H           0.137370        0.8626     0.86263
  137          H           0.137359        0.8626     0.86264
  138          H           0.136582        0.8634     0.86342
  139          H           0.136602        0.8634     0.86340
  140          H           0.137732        0.8623     0.86227
  141          H           0.137660        0.8623     0.86234
  142          H           0.142019        0.8580     0.85798
  143          H           0.142549        0.8575     0.85745
  144          H           0.161557        0.8384     0.83844
  145          H           0.161249        0.8388     0.83875
  146          H           0.140225        0.8598     0.85977
  147          H           0.142291        0.8577     0.85771
  148          H           0.142158        0.8578     0.85784
  149          H           0.133354        0.8666     0.86665
  150          H           0.133566        0.8664     0.86643
  151          H           0.136302        0.8637     0.86370
  152          H           0.136266        0.8637     0.86373
  153          H           0.136432        0.8636     0.86357
  154          H           0.136458        0.8635     0.86354
  155          H           0.135911        0.8641     0.86409
  156          H           0.135917        0.8641     0.86408
  157          H           0.136747        0.8633     0.86325
  158          H           0.136764        0.8632     0.86324
  159          H           0.135893        0.8641     0.86411
  160          H           0.135736        0.8643     0.86426
  161          H           0.136596        0.8634     0.86340
  162          H           0.136628        0.8634     0.86337
  163          H           0.137108        0.8629     0.86289
  164          H           0.135669        0.8643     0.86433
  165          H           0.136028        0.8640     0.86397
  166          H           0.136107        0.8639     0.86389
  167          H           0.153240        0.8468     0.84676
  168          H           0.152483        0.8475     0.84752
  169          H           0.155945        0.8441     0.84405
  170          H           0.155965        0.8440     0.84404
  171          H           0.140266        0.8597     0.85973
  172          H           0.142039        0.8580     0.85796
  173          H           0.142352        0.8576     0.85765
  174          H           0.133510        0.8665     0.86649
  175          H           0.133432        0.8666     0.86657
  176          H           0.136139        0.8639     0.86386
  177          H           0.136368        0.8636     0.86363
  178          H           0.136503        0.8635     0.86350
  179          H           0.136132        0.8639     0.86387
  180          H           0.135457        0.8645     0.86454
  181          H           0.136486        0.8635     0.86351
  182          H           0.136647        0.8634     0.86335
  183          H           0.135937        0.8641     0.86406
  184          H           0.134555        0.8654     0.86544
  185          H           0.137211        0.8628     0.86279
  186          H           0.136458        0.8635     0.86354
  187          H           0.135715        0.8643     0.86429
  188          H           0.135143        0.8649     0.86486
  189          H           0.138002        0.8620     0.86200
  190          H           0.134983        0.8650     0.86502
  191          H           0.137469        0.8625     0.86253
  192          H           0.155390        0.8446     0.84461
  193          H           0.139423        0.8606     0.86058
  194          H           0.146484        0.8535     0.85352
  195          H           0.159051        0.8409     0.84095
  196          H           0.140110        0.8599     0.85989
  197          H           0.142178        0.8578     0.85782
  198          H           0.142262        0.8577     0.85774
  199          H           0.133528        0.8665     0.86647
  200          H           0.133439        0.8666     0.86656
  201          H           0.136306        0.8637     0.86369
  202          H           0.136345        0.8637     0.86366
  203          H           0.136327        0.8637     0.86367
  204          H           0.136330        0.8637     0.86367
  205          H           0.136329        0.8637     0.86367
  206          H           0.136336        0.8637     0.86366
  207          H           0.136706        0.8633     0.86329
  208          H           0.136725        0.8633     0.86328
  209          H           0.136102        0.8639     0.86390
  210          H           0.136228        0.8638     0.86377
  211          H           0.137245        0.8628     0.86276
  212          H           0.137244        0.8628     0.86276
  213          H           0.136721        0.8633     0.86328
  214          H           0.136869        0.8631     0.86313
  215          H           0.137708        0.8623     0.86229
  216          H           0.137601        0.8624     0.86240
  217          H           0.142335        0.8577     0.85767
  218          H           0.142676        0.8573     0.85732
  219          H           0.161191        0.8388     0.83881
  220          H           0.161603        0.8384     0.83840
 DIPOLE           X         Y         Z       TOTAL
 POINT-CHG.    -0.003    -0.205     0.035     0.208
 HYBRID         0.004    -0.044     0.032     0.055
 SUM            0.002    -0.249     0.067     0.258


          ATOMIC ORBITAL ELECTRON POPULATIONS

     Atom    s        px        py        pz   
    1  C   1.06359   0.97773   0.96060   0.96744
    2  C   1.05374   0.95300   0.99217   1.07577
    3  C   1.07681   0.96773   0.89366   0.91747
    4  C   1.07780   0.89251   0.97008   0.91754
    5  C   1.05410   0.97148   0.97154   1.07539
    6  C   1.06384   0.97087   0.96927   0.96860
    7  C   1.09308   1.09784   0.95284   0.92440
    8  C   1.03994   0.97517   0.95667   1.04659
    9  C   1.07632   0.96277   0.97203   0.92079
   10  C   1.07933   1.09225   0.97421   1.05484
   11  C   1.08151   1.00896   1.05755   1.05982
   12  C   1.07841   0.96887   0.96269   0.92027
   13  C   1.03951   0.98128   0.94514   1.04279
   14  C   1.09504   0.99595   1.05761   0.92259
   15  N   1.73727   1.12602   1.34134   1.12841
   16  C   1.06285   0.88412   0.97522   1.00225
   17  C   1.06221   0.96858   0.89351   1.00381
   18  N   1.73888   1.13278   1.33118   1.12839
   19  C   1.08779   0.97983   1.06900   0.97117
   20  C   1.06197   0.96617   0.89251   1.00121
   21  C   1.06224   0.88640   0.97668   1.00455
   22  C   1.08828   0.98036   1.06892   0.96622
   23  N   1.73802   1.12890   1.33700   1.12967
   24  C   1.07709   0.89144   0.96915   0.91687
   25  C   1.07692   0.96804   0.89621   0.91920
   26  N   1.73653   1.12270   1.34531   1.12737
   27  C   1.05437   0.96983   0.97272   1.07704
   28  C   1.06452   0.96994   0.96878   0.96706
   29  C   1.06449   0.97766   0.96099   0.97063
   30  C   1.05447   0.95246   0.99202   1.07058
   31  C   1.08164   1.00854   1.05207   1.05228
   32  C   1.07708   0.97138   0.96261   0.92750
   33  C   1.04100   0.98238   0.94852   1.03554
   34  C   1.09405   1.00212   1.05213   0.92799
   35  C   1.09296   1.09776   0.95355   0.92452
   36  C   1.03999   0.97622   0.95564   1.04673
   37  C   1.07669   0.96253   0.97173   0.92001
   38  C   1.07965   1.09206   0.97450   1.05485
   39  C   1.08297   1.02465   0.97791   1.04106
   40  C   1.08249   1.02166   0.98611   1.04249
   41  C   1.09395   0.99670   0.96605   0.98460
   42  C   1.03268   1.16086   1.02797   1.18221
   43  C   1.09351   0.98617   0.97243   0.98554
   44  C   1.03237   1.14235   1.04817   1.18259
   45  C   1.08235   1.02040   0.98787   1.04239
   46  C   1.09368   0.98506   0.97353   0.98562
   47  C   1.03280   1.13988   1.05189   1.18063
   48  C   1.08332   1.02114   0.97475   1.04163
   49  C   1.09300   1.00175   0.96830   0.98690
   50  C   1.03205   1.15644   1.03347   1.18105
   51  C   1.05229   1.04709   1.16633   1.17390
   52  C   1.05584   0.98637   1.04935   1.15885
   53  C   1.05998   0.99514   1.05344   1.16388
   54  C   1.06025   0.99889   1.05207   1.16323
   55  C   1.06010   0.99683   1.05194   1.16320
   56  C   1.05963   0.99713   1.05158   1.16351
   57  C   1.05993   0.99698   1.05365   1.16301
   58  C   1.05934   1.00032   1.05155   1.16440
   59  C   1.06014   0.99818   1.05321   1.16248
   60  C   1.05942   1.00228   1.04583   1.16492
   61  C   1.05958   0.98884   1.05396   1.16339
   62  C   1.05619   1.01289   1.05046   1.17832
   63  C   1.05191   1.15608   1.05748   1.17425
   64  C   1.05543   1.01380   1.02214   1.15932
   65  C   1.06009   1.01608   1.03217   1.16365
   66  C   1.06022   1.01595   1.03531   1.16333
   67  C   1.06002   1.01824   1.03112   1.16257
   68  C   1.05982   1.01921   1.03058   1.16386
   69  C   1.06001   1.02030   1.03027   1.16176
   70  C   1.05932   1.01980   1.03057   1.16380
   71  C   1.06115   1.01442   1.03262   1.16248
   72  C   1.05924   1.01602   1.03700   1.16198
   73  C   1.06110   1.00156   1.04147   1.17711
   74  C   1.05636   0.99420   1.07230   1.16747
   75  C   1.05213   1.15815   1.05861   1.17090
   76  C   1.05568   1.01570   1.02363   1.15552
   77  C   1.06035   1.01808   1.03371   1.15975
   78  C   1.06070   1.01761   1.03705   1.15913
   79  C   1.06053   1.01907   1.03445   1.15812
   80  C   1.06062   1.01920   1.03437   1.15816
   81  C   1.06012   1.02032   1.03442   1.15733
   82  C   1.06070   1.02526   1.03412   1.15371
   83  C   1.06089   1.02208   1.03872   1.14832
   84  C   1.06081   1.03186   1.03918   1.14192
   85  C   1.06001   1.01829   1.12443   1.06542
   86  C   1.05829   0.99693   1.13456   1.10284
   87  C   1.05209   1.04838   1.16541   1.17396
   88  C   1.05579   0.98552   1.05112   1.15817
   89  C   1.06037   0.99395   1.05464   1.16338
   90  C   1.06023   0.99754   1.05383   1.16270
   91  C   1.06008   0.99566   1.05334   1.16280
   92  C   1.05970   0.99563   1.05339   1.16317
   93  C   1.05983   0.99573   1.05538   1.16269
   94  C   1.05940   0.99897   1.05353   1.16411
   95  C   1.05986   0.99671   1.05506   1.16230
   96  C   1.05918   1.00130   1.04730   1.16437
   97  C   1.05924   0.98758   1.05512   1.16370
   98  C   1.05669   1.01148   1.05236   1.17806
   99  H   0.80910
  100  H   0.83571
  101  H   0.84009
  102  H   0.80823
  103  H   0.79826
  104  H   0.79769
  105  H   0.83941
  106  H   0.80776
  107  H   0.80945
  108  H   0.83531
  109  H   0.83010
  110  H   0.82963
  111  H   0.83349
  112  H   0.83015
  113  H   0.83300
  114  H   0.82987
  115  H   0.83100
  116  H   0.83221
  117  H   0.82978
  118  H   0.83112
  119  H   0.83017
  120  H   0.83272
  121  H   0.85991
  122  H   0.85787
  123  H   0.85776
  124  H   0.86655
  125  H   0.86647
  126  H   0.86364
  127  H   0.86363
  128  H   0.86369
  129  H   0.86370
  130  H   0.86375
  131  H   0.86364
  132  H   0.86319
  133  H   0.86327
  134  H   0.86397
  135  H   0.86375
  136  H   0.86263
  137  H   0.86264
  138  H   0.86342
  139  H   0.86340
  140  H   0.86227
  141  H   0.86234
  142  H   0.85798
  143  H   0.85745
  144  H   0.83844
  145  H   0.83875
  146  H   0.85977
  147  H   0.85771
  148  H   0.85784
  149  H   0.86665
  150  H   0.86643
  151  H   0.86370
  152  H   0.86373
  153  H   0.86357
  154  H   0.86354
  155  H   0.86409
  156  H   0.86408
  157  H   0.86325
  158  H   0.86324
  159  H   0.86411
  160  H   0.86426
  161  H   0.86340
  162  H   0.86337
  163  H   0.86289
  164  H   0.86433
  165  H   0.86397
  166  H   0.86389
  167  H   0.84676
  168  H   0.84752
  169  H   0.84405
  170  H   0.84404
  171  H   0.85973
  172  H   0.85796
  173  H   0.85765
  174  H   0.86649
  175  H   0.86657
  176  H   0.86386
  177  H   0.86363
  178  H   0.86350
  179  H   0.86387
  180  H   0.86454
  181  H   0.86351
  182  H   0.86335
  183  H   0.86406
  184  H   0.86544
  185  H   0.86279
  186  H   0.86354
  187  H   0.86429
  188  H   0.86486
  189  H   0.86200
  190  H   0.86502
  191  H   0.86253
  192  H   0.84461
  193  H   0.86058
  194  H   0.85352
  195  H   0.84095
  196  H   0.85989
  197  H   0.85782
  198  H   0.85774
  199  H   0.86647
  200  H   0.86656
  201  H   0.86369
  202  H   0.86366
  203  H   0.86367
  204  H   0.86367
  205  H   0.86367
  206  H   0.86366
  207  H   0.86329
  208  H   0.86328
  209  H   0.86390
  210  H   0.86377
  211  H   0.86276
  212  H   0.86276
  213  H   0.86328
  214  H   0.86313
  215  H   0.86229
  216  H   0.86240
  217  H   0.85767
  218  H   0.85732
  219  H   0.83881
  220  H   0.83840

 **********************
 *                    *
 * JOB ENDED NORMALLY *
 *                    *
 **********************



 TOTAL JOB TIME:            44.24 SECONDS

 == MOPAC DONE ==
