 *******************************************************************************
 ** Site#: 9602  E-mail support: MrMOPAC@OpenMOPAC.net  Version 16.035L 64BITS**
 *******************************************************************************
 ** Cite this program as: MOPAC2016, Version: 16.035L, James J. P. Stewart,   **
 ** Stewart Computational Chemistry, web-site: HTTP://OpenMOPAC.net.          **
 *******************************************************************************
 **                                                                           **
 **                                MOPAC2016                                  **
 **                                                                           **
 *******************************************************************************

                              PM7 CALCULATION RESULTS


 *******************************************************************************
 *  CALCULATION DONE:                                Fri Apr 28 02:47:57 2017  *
 *  PM7        - The PM7 Hamiltonian to be used
 *
 *
 *
 *                 CHARGE ON SYSTEM = 0
 *
 *
 *
 *  BFGS       - USE THE BFGS GEOMETRY OPTIMIZER
 *  T=         - A TIME OF 172800.0 SECONDS REQUESTED
 *  DUMP=N     - RESTART FILE WRITTEN EVERY  7200.000 SECONDS
 *******************************************************************************
PM7 BFGS CHARGE=0
 chassi-G-1a-cdh.xyz

   ATOM   CHEMICAL          X               Y               Z
  NUMBER   SYMBOL      (ANGSTROMS)     (ANGSTROMS)     (ANGSTROMS)
 
     1       C          5.63229000  *  -2.20854000  *   0.88427000  *
     2       C          4.89000000  *  -0.99462000  *   0.84243000  *
     3       C          3.49213000  *  -1.02398000  *   0.73743000  *
     4       C          2.81456000  *  -2.25589000  *   0.69676000  *
     5       C          3.53050000  *  -3.46849000  *   0.70933000  *
     6       C          4.95069000  *  -3.46292000  *   0.79082000  *
     7       C          2.84137000  *  -4.69154000  *   0.64790000  *
     8       C          3.52352000  *  -5.90641000  *   0.63842000  *
     9       C          4.93638000  *  -5.93124000  *   0.69515000  *
    10       C          5.62909000  *  -4.71481000  *   0.78544000  *
    11       C          7.03199000  *  -2.11883000  *   1.04413000  *
    12       C          7.68073000  *  -0.88384000  *   1.16697000  *
    13       C          6.92935000  *   0.30742000  *   1.09898000  *
    14       C          5.55192000  *   0.24265000  *   0.93233000  *
    15       N          2.77357000  *   0.13454000  *   0.69568000  *
    16       C          1.41890000  *   0.13602000  *   0.63538000  *
    17       C          0.74193000  *  -1.09709000  *   0.62923000  *
    18       N          1.45229000  *  -2.25008000  *   0.64913000  *
    19       C          0.70216000  *   1.34087000  *   0.59279000  *
    20       C         -0.69894000  *   1.30812000  *   0.56888000  *
    21       C         -1.36336000  *   0.06780000  *   0.59502000  *
    22       C         -0.65024000  *  -1.12900000  *   0.61332000  *
    23       N         -1.43168000  *   2.45452000  *   0.54092000  *
    24       C         -2.79965000  *   2.43191000  *   0.56663000  *
    25       C         -3.45178000  *   1.18260000  *   0.62340000  *
    26       N         -2.71231000  *   0.04513000  *   0.62083000  *
    27       C         -3.55577000  *   3.62374000  *   0.58160000  *
    28       C         -4.97441000  *   3.55690000  *   0.67273000  *
    29       C         -5.62359000  *   2.28742000  *   0.73750000  *
    30       C         -4.84675000  *   1.10448000  *   0.71450000  *
    31       C         -7.02592000  *   2.15429000  *   0.85480000  *
    32       C         -7.64244000  *   0.90771000  *   0.97418000  *
    33       C         -6.84841000  *  -0.26014000  *   0.96799000  *
    34       C         -5.47055000  *  -0.15256000  *   0.82338000  *
    35       C         -2.92401000  *   4.88459000  *   0.53546000  *
    36       C         -3.66780000  *   6.07102000  *   0.60512000  *
    37       C         -5.06962000  *   6.01410000  *   0.72324000  *
    38       C         -5.69656000  *   4.76703000  *   0.74082000  *
    39       C         -7.40501000  *  -1.58371000  *   1.13194000  *
    40       C         -2.96963000  *   7.33178000  *   0.59483000  *
    41       C         -7.89969000  *  -2.67933000  *   1.23578000  *
    42       C         -8.53725000  *  -3.99272000  *   1.32756000  *
    43       C         -2.40783000  *   8.39766000  *   0.57264000  *
    44       C         -1.75052000  *   9.70231000  *   0.53245000  *
    45       C          2.73973000  *  -7.11936000  *   0.61295000  *
    46       C          2.11791000  *  -8.15177000  *   0.62583000  *
    47       C          1.39582000  *  -9.42245000  *   0.65788000  *
    48       C          7.53298000  *   1.61358000  *   1.22993000  *
    49       C          8.05948000  *   2.69691000  *   1.29533000  *
    50       C          8.72816000  *   3.99709000  *   1.33568000  *
    51       C         11.63173000  * -19.04800000  *   2.94024000  *
    52       C         10.46362000  * -18.11692000  *   3.24625000  *
    53       C         10.79436000  * -16.67293000  *   2.85439000  *
    54       C          9.59519000  * -15.75449000  *   3.10041000  *
    55       C          9.91987000  * -14.30639000  *   2.71301000  *
    56       C          8.67651000  * -13.42861000  *   2.85521000  *
    57       C          8.95325000  * -11.96717000  *   2.46872000  *
    58       C          7.64784000  * -11.17576000  *   2.55041000  *
    59       C          7.77775000  *  -9.68966000  *   2.16500000  *
    60       C          6.41808000  *  -9.03263000  *   2.43626000  *
    61       C          6.26214000  *  -7.53314000  *   2.11492000  *
    62       C          5.70853000  *  -7.25126000  *   0.70382000  *
    63       C         21.79871000  *   4.15087000  *   0.17477000  *
    64       C         20.63488000  *   3.59566000  *   0.98534000  *
    65       C         19.36137000  *   3.53881000  *   0.13932000  *
    66       C         18.21513000  *   2.92704000  *   0.94038000  *
    67       C         16.95220000  *   2.81862000  *   0.08567000  *
    68       C         15.86841000  *   2.08606000  *   0.86525000  *
    69       C         14.60911000  *   1.89217000  *   0.02317000  *
    70       C         13.62696000  *   1.04077000  *   0.81306000  *
    71       C         12.32316000  *   0.80737000  *   0.05709000  *
    72       C         11.41931000  *  -0.03924000  *   0.94388000  *
    73       C         10.01463000  *  -0.19589000  *   0.37639000  *
    74       C          9.15956000  *  -0.87556000  *   1.45122000  *
    75       C        -19.34618000  *  -7.98534000  *   0.37182000  *
    76       C        -18.90637000  *  -6.56461000  *   0.70020000  *
    77       C        -17.45441000  *  -6.33654000  *   0.27949000  *
    78       C        -17.01975000  *  -4.91001000  *   0.60646000  *
    79       C        -15.59040000  *  -4.66652000  *   0.13182000  *
    80       C        -15.16661000  *  -3.23894000  *   0.45612000  *
    81       C        -13.76926000  *  -2.96808000  *  -0.08397000  *
    82       C        -13.32218000  *  -1.56696000  *   0.31186000  *
    83       C        -11.91930000  *  -1.29995000  *  -0.21594000  *
    84       C        -11.33853000  *  -0.05572000  *   0.44632000  *
    85       C         -9.87100000  *   0.11481000  *   0.05804000  *
    86       C         -9.13948000  *   0.87669000  *   1.16477000  *
    87       C         -9.90592000  *  19.99636000  *  -2.12062000  *
    88       C        -10.15091000  *  18.70751000  *  -1.34285000  *
    89       C         -9.39120000  *  17.53714000  *  -1.97347000  *
    90       C         -9.58398000  *  16.25437000  *  -1.16045000  *
    91       C         -8.77117000  *  15.10635000  *  -1.76599000  *
    92       C         -8.86574000  *  13.85346000  *  -0.89485000  *
    93       C         -7.97901000  *  12.73480000  *  -1.45122000  *
    94       C         -7.97874000  *  11.54049000  *  -0.49975000  *
    95       C         -7.03180000  *  10.43422000  *  -0.97849000  *
    96       C         -6.97016000  *   9.33798000  *   0.08192000  *
    97       C         -6.00333000  *   8.20393000  *  -0.27959000  *
    98       C         -5.94534000  *   7.23923000  *   0.90966000  *
    99       H          1.75733000  *  -4.70893000  *   0.60888000  *
   100       H          6.70065000  *  -4.79179000  *   0.83835000  *
   101       H          7.64987000  *  -2.99556000  *   1.11266000  *
   102       H          4.99512000  *   1.17306000  *   0.90201000  *
   103       H          1.22469000  *   2.29006000  *   0.59165000  *
   104       H         -1.17353000  *  -2.07804000  *   0.62842000  *
   105       H         -7.68350000  *   3.00105000  *   0.88152000  *
   106       H         -4.88413000  *  -1.06491000  *   0.82435000  *
   107       H         -1.84413000  *   4.95165000  *   0.46646000  *
   108       H         -6.76397000  *   4.78376000  *   0.83677000  *
   109       H         -8.29761000  *  -4.45702000  *   2.30542000  *
   110       H         -8.16925000  *  -4.64047000  *   0.50534000  *
   111       H         -9.63698000  *  -3.87440000  *   1.23354000  *
   112       H         -1.19583000  *   9.86652000  *   1.47860000  *
   113       H         -2.51724000  *  10.49521000  *   0.40939000  *
   114       H         -1.04639000  *   9.73452000  *  -0.32410000  *
   115       H          1.60120000  *  -9.93826000  *   1.61901000  *
   116       H          1.74168000  * -10.06031000  *  -0.18106000  *
   117       H          0.30685000  *  -9.23606000  *   0.56212000  *
   118       H          9.25409000  *   4.11468000  *   2.30494000  *
   119       H          7.97804000  *   4.80514000  *   1.21491000  *
   120       H          9.46660000  *   4.05440000  *   0.50858000  *
   121       H         11.36848000  * -20.08482000  *   3.23715000  *
   122       H         12.53640000  * -18.73220000  *   3.50161000  *
   123       H         11.85416000  * -19.03625000  *   1.85156000  *
   124       H          9.57418000  * -18.46709000  *   2.67795000  *
   125       H         10.23316000  * -18.16404000  *   4.33318000  *
   126       H         11.66664000  * -16.31888000  *   3.44667000  *
   127       H         11.05533000  * -16.63693000  *   1.77340000  *
   128       H          8.74093000  * -16.11764000  *   2.48646000  *
   129       H          9.30287000  * -15.79172000  *   4.17361000  *
   130       H         10.73536000  * -13.92137000  *   3.36388000  *
   131       H         10.25657000  * -14.27354000  *   1.65371000  *
   132       H          7.88492000  * -13.83606000  *   2.18694000  *
   133       H          8.30793000  * -13.47122000  *   3.90501000  *
   134       H          9.70358000  * -11.53422000  *   3.16709000  *
   135       H          9.34940000  * -11.91863000  *   1.43218000  *
   136       H          6.90271000  * -11.64514000  *   1.86915000  *
   137       H          7.26775000  * -11.25493000  *   3.59416000  *
   138       H          8.54302000  *  -9.20025000  *   2.80894000  *
   139       H          8.08261000  *  -9.59394000  *   1.10162000  *
   140       H          5.60126000  *  -9.60120000  *   1.93717000  *
   141       H          6.25480000  *  -9.14172000  *   3.53011000  *
   142       H          5.45134000  *  -7.21122000  *   2.80284000  *
   143       H          7.15941000  *  -6.92688000  *   2.37074000  *
   144       H          6.48638000  *  -7.30086000  *  -0.08825000  *
   145       H          4.99783000  *  -8.06335000  *   0.46268000  *
   146       H         22.71032000  *   4.17856000  *   0.80689000  *
   147       H         21.56842000  *   5.17980000  *  -0.17360000  *
   148       H         21.99438000  *   3.50121000  *  -0.70540000  *
   149       H         20.89951000  *   2.57199000  *   1.33128000  *
   150       H         20.46437000  *   4.23986000  *   1.87543000  *
   151       H         19.08112000  *   4.56235000  *  -0.19368000  *
   152       H         19.54852000  *   2.90673000  *  -0.75728000  *
   153       H         18.51887000  *   1.90754000  *   1.26813000  *
   154       H         18.00417000  *   3.54355000  *   1.84271000  *
   155       H         16.59877000  *   3.83140000  *  -0.20920000  *
   156       H         17.18101000  *   2.23369000  *  -0.83246000  *
   157       H         16.26152000  *   1.08579000  *   1.15499000  *
   158       H         15.61691000  *   2.65133000  *   1.79133000  *
   159       H         14.16070000  *   2.88174000  *  -0.21800000  *
   160       H         14.85960000  *   1.36545000  *  -0.92344000  *
   161       H         14.09590000  *   0.05659000  *   1.03838000  *
   162       H         13.40127000  *   1.55683000  *   1.77438000  *
   163       H         11.84230000  *   1.79204000  *  -0.13826000  *
   164       H         12.50478000  *   0.29183000  *  -0.91105000  *
   165       H         11.87419000  *  -1.03994000  *   1.12025000  *
   166       H         11.33174000  *   0.48793000  *   1.92117000  *
   167       H          9.63762000  *   0.81513000  *   0.14704000  *
   168       H         10.01403000  *  -0.78212000  *  -0.56850000  *
   169       H          9.55438000  *  -1.90667000  *   1.59201000  *
   170       H          9.27396000  *  -0.34793000  *   2.42356000  *
   171       H        -20.40384000  *  -8.12514000  *   0.67654000  *
   172       H        -18.71390000  *  -8.71730000  *   0.91803000  *
   173       H        -19.25979000  *  -8.17049000  *  -0.72033000  *
   174       H        -19.56503000  *  -5.84890000  *   0.16059000  *
   175       H        -19.01228000  *  -6.39335000  *   1.79371000  *
   176       H        -16.79051000  *  -7.05342000  *   0.81212000  *
   177       H        -17.36056000  *  -6.50610000  *  -0.81620000  *
   178       H        -17.69532000  *  -4.19069000  *   0.09237000  *
   179       H        -17.08481000  *  -4.74238000  *   1.70479000  *
   180       H        -14.89782000  *  -5.38028000  *   0.63278000  *
   181       H        -15.53709000  *  -4.82607000  *  -0.96772000  *
   182       H        -15.87411000  *  -2.51658000  *  -0.00687000  *
   183       H        -15.17959000  *  -3.09936000  *   1.56090000  *
   184       H        -13.05998000  *  -3.70878000  *   0.35271000  *
   185       H        -13.76185000  *  -3.07355000  *  -1.19072000  *
   186       H        -14.01824000  *  -0.79011000  *  -0.07260000  *
   187       H        -13.31662000  *  -1.52462000  *   1.42489000  *
   188       H        -11.27650000  *  -2.16022000  *   0.08200000  *
   189       H        -11.91487000  *  -1.22168000  *  -1.32472000  *
   190       H        -11.91609000  *   0.87034000  *   0.23205000  *
   191       H        -11.39659000  *  -0.25364000  *   1.54004000  *
   192       H         -9.42784000  *  -0.88611000  *  -0.02531000  *
   193       H         -9.76879000  *   0.59200000  *  -0.94132000  *
   194       H         -9.57715000  *   1.89804000  *   1.22291000  *
   195       H         -9.31538000  *   0.38473000  *   2.14627000  *
   196       H        -10.45983000  *  20.83099000  *  -1.64252000  *
   197       H        -10.25417000  *  19.88730000  *  -3.16950000  *
   198       H         -8.82234000  *  20.24367000  *  -2.11992000  *
   199       H         -9.80571000  *  18.85565000  *  -0.29602000  *
   200       H        -11.24024000  *  18.48568000  *  -1.33177000  *
   201       H         -9.74614000  *  17.37631000  *  -3.01537000  *
   202       H         -8.30672000  *  17.78520000  *  -1.99860000  *
   203       H         -9.23179000  *  16.43732000  *  -0.12079000  *
   204       H        -10.66115000  *  15.97780000  *  -1.12925000  *
   205       H         -9.13344000  *  14.88357000  *  -2.79370000  *
   206       H         -7.70392000  *  15.41618000  *  -1.82077000  *
   207       H         -8.51437000  *  14.11202000  *   0.12928000  *
   208       H         -9.92109000  *  13.50685000  *  -0.83195000  *
   209       H         -8.33673000  *  12.42629000  *  -2.45780000  *
   210       H         -6.93621000  *  13.11273000  *  -1.53919000  *
   211       H         -7.63514000  *  11.89442000  *   0.49843000  *
   212       H         -9.01033000  *  11.13603000  *  -0.39635000  *
   213       H         -7.38379000  *  10.02119000  *  -1.94897000  *
   214       H         -6.01085000  *  10.85514000  *  -1.11215000  *
   215       H         -6.62810000  *   9.80112000  *   1.03473000  *
   216       H         -7.98976000  *   8.91847000  *   0.23827000  *
   217       H         -6.36610000  *   7.67721000  *  -1.18949000  *
   218       H         -5.00021000  *   8.62534000  *  -0.48620000  *
   219       H         -5.59315000  *   7.77560000  *   1.81722000  *
   220       H         -6.99397000  *   6.92553000  *   1.11310000  *
 


          CARTESIAN COORDINATES 

    NO.       ATOM         X         Y         Z

     1         C        5.6323   -2.2085    0.8843
     2         C        4.8900   -0.9946    0.8424
     3         C        3.4921   -1.0240    0.7374
     4         C        2.8146   -2.2559    0.6968
     5         C        3.5305   -3.4685    0.7093
     6         C        4.9507   -3.4629    0.7908
     7         C        2.8414   -4.6915    0.6479
     8         C        3.5235   -5.9064    0.6384
     9         C        4.9364   -5.9312    0.6952
    10         C        5.6291   -4.7148    0.7854
    11         C        7.0320   -2.1188    1.0441
    12         C        7.6807   -0.8838    1.1670
    13         C        6.9294    0.3074    1.0990
    14         C        5.5519    0.2427    0.9323
    15         N        2.7736    0.1345    0.6957
    16         C        1.4189    0.1360    0.6354
    17         C        0.7419   -1.0971    0.6292
    18         N        1.4523   -2.2501    0.6491
    19         C        0.7022    1.3409    0.5928
    20         C       -0.6989    1.3081    0.5689
    21         C       -1.3634    0.0678    0.5950
    22         C       -0.6502   -1.1290    0.6133
    23         N       -1.4317    2.4545    0.5409
    24         C       -2.7997    2.4319    0.5666
    25         C       -3.4518    1.1826    0.6234
    26         N       -2.7123    0.0451    0.6208
    27         C       -3.5558    3.6237    0.5816
    28         C       -4.9744    3.5569    0.6727
    29         C       -5.6236    2.2874    0.7375
    30         C       -4.8468    1.1045    0.7145
    31         C       -7.0259    2.1543    0.8548
    32         C       -7.6424    0.9077    0.9742
    33         C       -6.8484   -0.2601    0.9680
    34         C       -5.4706   -0.1526    0.8234
    35         C       -2.9240    4.8846    0.5355
    36         C       -3.6678    6.0710    0.6051
    37         C       -5.0696    6.0141    0.7232
    38         C       -5.6966    4.7670    0.7408
    39         C       -7.4050   -1.5837    1.1319
    40         C       -2.9696    7.3318    0.5948
    41         C       -7.8997   -2.6793    1.2358
    42         C       -8.5373   -3.9927    1.3276
    43         C       -2.4078    8.3977    0.5726
    44         C       -1.7505    9.7023    0.5324
    45         C        2.7397   -7.1194    0.6130
    46         C        2.1179   -8.1518    0.6258
    47         C        1.3958   -9.4224    0.6579
    48         C        7.5330    1.6136    1.2299
    49         C        8.0595    2.6969    1.2953
    50         C        8.7282    3.9971    1.3357
    51         C       11.6317  -19.0480    2.9402
    52         C       10.4636  -18.1169    3.2462
    53         C       10.7944  -16.6729    2.8544
    54         C        9.5952  -15.7545    3.1004
    55         C        9.9199  -14.3064    2.7130
    56         C        8.6765  -13.4286    2.8552
    57         C        8.9533  -11.9672    2.4687
    58         C        7.6478  -11.1758    2.5504
    59         C        7.7778   -9.6897    2.1650
    60         C        6.4181   -9.0326    2.4363
    61         C        6.2621   -7.5331    2.1149
    62         C        5.7085   -7.2513    0.7038
    63         C       21.7987    4.1509    0.1748
    64         C       20.6349    3.5957    0.9853
    65         C       19.3614    3.5388    0.1393
    66         C       18.2151    2.9270    0.9404
    67         C       16.9522    2.8186    0.0857
    68         C       15.8684    2.0861    0.8653
    69         C       14.6091    1.8922    0.0232
    70         C       13.6270    1.0408    0.8131
    71         C       12.3232    0.8074    0.0571
    72         C       11.4193   -0.0392    0.9439
    73         C       10.0146   -0.1959    0.3764
    74         C        9.1596   -0.8756    1.4512
    75         C      -19.3462   -7.9853    0.3718
    76         C      -18.9064   -6.5646    0.7002
    77         C      -17.4544   -6.3365    0.2795
    78         C      -17.0197   -4.9100    0.6065
    79         C      -15.5904   -4.6665    0.1318
    80         C      -15.1666   -3.2389    0.4561
    81         C      -13.7693   -2.9681   -0.0840
    82         C      -13.3222   -1.5670    0.3119
    83         C      -11.9193   -1.2999   -0.2159
    84         C      -11.3385   -0.0557    0.4463
    85         C       -9.8710    0.1148    0.0580
    86         C       -9.1395    0.8767    1.1648
    87         C       -9.9059   19.9964   -2.1206
    88         C      -10.1509   18.7075   -1.3429
    89         C       -9.3912   17.5371   -1.9735
    90         C       -9.5840   16.2544   -1.1604
    91         C       -8.7712   15.1064   -1.7660
    92         C       -8.8657   13.8535   -0.8949
    93         C       -7.9790   12.7348   -1.4512
    94         C       -7.9787   11.5405   -0.4997
    95         C       -7.0318   10.4342   -0.9785
    96         C       -6.9702    9.3380    0.0819
    97         C       -6.0033    8.2039   -0.2796
    98         C       -5.9453    7.2392    0.9097
    99         H        1.7573   -4.7089    0.6089
   100         H        6.7007   -4.7918    0.8384
   101         H        7.6499   -2.9956    1.1127
   102         H        4.9951    1.1731    0.9020
   103         H        1.2247    2.2901    0.5917
   104         H       -1.1735   -2.0780    0.6284
   105         H       -7.6835    3.0011    0.8815
   106         H       -4.8841   -1.0649    0.8244
   107         H       -1.8441    4.9516    0.4665
   108         H       -6.7640    4.7838    0.8368
   109         H       -8.2976   -4.4570    2.3054
   110         H       -8.1692   -4.6405    0.5053
   111         H       -9.6370   -3.8744    1.2335
   112         H       -1.1958    9.8665    1.4786
   113         H       -2.5172   10.4952    0.4094
   114         H       -1.0464    9.7345   -0.3241
   115         H        1.6012   -9.9383    1.6190
   116         H        1.7417  -10.0603   -0.1811
   117         H        0.3069   -9.2361    0.5621
   118         H        9.2541    4.1147    2.3049
   119         H        7.9780    4.8051    1.2149
   120         H        9.4666    4.0544    0.5086
   121         H       11.3685  -20.0848    3.2372
   122         H       12.5364  -18.7322    3.5016
   123         H       11.8542  -19.0362    1.8516
   124         H        9.5742  -18.4671    2.6780
   125         H       10.2332  -18.1640    4.3332
   126         H       11.6666  -16.3189    3.4467
   127         H       11.0553  -16.6369    1.7734
   128         H        8.7409  -16.1176    2.4865
   129         H        9.3029  -15.7917    4.1736
   130         H       10.7354  -13.9214    3.3639
   131         H       10.2566  -14.2735    1.6537
   132         H        7.8849  -13.8361    2.1869
   133         H        8.3079  -13.4712    3.9050
   134         H        9.7036  -11.5342    3.1671
   135         H        9.3494  -11.9186    1.4322
   136         H        6.9027  -11.6451    1.8692
   137         H        7.2678  -11.2549    3.5942
   138         H        8.5430   -9.2003    2.8089
   139         H        8.0826   -9.5939    1.1016
   140         H        5.6013   -9.6012    1.9372
   141         H        6.2548   -9.1417    3.5301
   142         H        5.4513   -7.2112    2.8028
   143         H        7.1594   -6.9269    2.3707
   144         H        6.4864   -7.3009   -0.0882
   145         H        4.9978   -8.0633    0.4627
   146         H       22.7103    4.1786    0.8069
   147         H       21.5684    5.1798   -0.1736
   148         H       21.9944    3.5012   -0.7054
   149         H       20.8995    2.5720    1.3313
   150         H       20.4644    4.2399    1.8754
   151         H       19.0811    4.5624   -0.1937
   152         H       19.5485    2.9067   -0.7573
   153         H       18.5189    1.9075    1.2681
   154         H       18.0042    3.5435    1.8427
   155         H       16.5988    3.8314   -0.2092
   156         H       17.1810    2.2337   -0.8325
   157         H       16.2615    1.0858    1.1550
   158         H       15.6169    2.6513    1.7913
   159         H       14.1607    2.8817   -0.2180
   160         H       14.8596    1.3655   -0.9234
   161         H       14.0959    0.0566    1.0384
   162         H       13.4013    1.5568    1.7744
   163         H       11.8423    1.7920   -0.1383
   164         H       12.5048    0.2918   -0.9111
   165         H       11.8742   -1.0399    1.1202
   166         H       11.3317    0.4879    1.9212
   167         H        9.6376    0.8151    0.1470
   168         H       10.0140   -0.7821   -0.5685
   169         H        9.5544   -1.9067    1.5920
   170         H        9.2740   -0.3479    2.4236
   171         H      -20.4038   -8.1251    0.6765
   172         H      -18.7139   -8.7173    0.9180
   173         H      -19.2598   -8.1705   -0.7203
   174         H      -19.5650   -5.8489    0.1606
   175         H      -19.0123   -6.3933    1.7937
   176         H      -16.7905   -7.0534    0.8121
   177         H      -17.3606   -6.5061   -0.8162
   178         H      -17.6953   -4.1907    0.0924
   179         H      -17.0848   -4.7424    1.7048
   180         H      -14.8978   -5.3803    0.6328
   181         H      -15.5371   -4.8261   -0.9677
   182         H      -15.8741   -2.5166   -0.0069
   183         H      -15.1796   -3.0994    1.5609
   184         H      -13.0600   -3.7088    0.3527
   185         H      -13.7619   -3.0736   -1.1907
   186         H      -14.0182   -0.7901   -0.0726
   187         H      -13.3166   -1.5246    1.4249
   188         H      -11.2765   -2.1602    0.0820
   189         H      -11.9149   -1.2217   -1.3247
   190         H      -11.9161    0.8703    0.2321
   191         H      -11.3966   -0.2536    1.5400
   192         H       -9.4278   -0.8861   -0.0253
   193         H       -9.7688    0.5920   -0.9413
   194         H       -9.5771    1.8980    1.2229
   195         H       -9.3154    0.3847    2.1463
   196         H      -10.4598   20.8310   -1.6425
   197         H      -10.2542   19.8873   -3.1695
   198         H       -8.8223   20.2437   -2.1199
   199         H       -9.8057   18.8557   -0.2960
   200         H      -11.2402   18.4857   -1.3318
   201         H       -9.7461   17.3763   -3.0154
   202         H       -8.3067   17.7852   -1.9986
   203         H       -9.2318   16.4373   -0.1208
   204         H      -10.6611   15.9778   -1.1293
   205         H       -9.1334   14.8836   -2.7937
   206         H       -7.7039   15.4162   -1.8208
   207         H       -8.5144   14.1120    0.1293
   208         H       -9.9211   13.5069   -0.8320
   209         H       -8.3367   12.4263   -2.4578
   210         H       -6.9362   13.1127   -1.5392
   211         H       -7.6351   11.8944    0.4984
   212         H       -9.0103   11.1360   -0.3964
   213         H       -7.3838   10.0212   -1.9490
   214         H       -6.0108   10.8551   -1.1121
   215         H       -6.6281    9.8011    1.0347
   216         H       -7.9898    8.9185    0.2383
   217         H       -6.3661    7.6772   -1.1895
   218         H       -5.0002    8.6253   -0.4862
   219         H       -5.5931    7.7756    1.8172
   220         H       -6.9940    6.9255    1.1131

 General Reference for PM7:
 "Optimization of Parameters for Semiempirical Methods VI: More Modifications to the 
 NDDO Approximations and Re-optimization of Parameters", J. J. P. Stewart, J. Mol. Mod., 1:32, 19 (2013)
 http://www.springerlink.com/openurl.asp?genre=article&id=doi:10.1007/s00894-012-1667-x

           Empirical Formula: C94 H122 N4  =   220 atoms



      MOLECULAR POINT GROUP   :   C1  


      RHF CALCULATION, NO. OF DOUBLY OCCUPIED LEVELS = 259


          Geometry optimization using BFGS
 CYCLE:     1 TIME:   1.600 TIME LEFT:  2.00D  GRAD.:   223.924 HEAT:  162.8250
 CYCLE:     2 TIME:   1.268 TIME LEFT:  2.00D  GRAD.:   191.597 HEAT:  155.1851
 CYCLE:     3 TIME:   1.206 TIME LEFT:  2.00D  GRAD.:   169.541 HEAT:  149.0694
 CYCLE:     4 TIME:   1.247 TIME LEFT:  2.00D  GRAD.:   126.213 HEAT:  140.8275
 CYCLE:     5 TIME:   1.277 TIME LEFT:  2.00D  GRAD.:    94.739 HEAT:  138.0129
 CYCLE:     6 TIME:   1.231 TIME LEFT:  2.00D  GRAD.:    78.455 HEAT:  136.9264
 CYCLE:     7 TIME:   1.214 TIME LEFT:  2.00D  GRAD.:    53.707 HEAT:  135.3289
 CYCLE:     8 TIME:   1.026 TIME LEFT:  2.00D  GRAD.:    46.449 HEAT:  134.8020
 CYCLE:     9 TIME:   1.109 TIME LEFT:  2.00D  GRAD.:    41.891 HEAT:  134.2346
 CYCLE:    10 TIME:   1.104 TIME LEFT:  2.00D  GRAD.:    39.185 HEAT:  133.7324
 CYCLE:    11 TIME:   1.197 TIME LEFT:  2.00D  GRAD.:    33.354 HEAT:  133.2363
 CYCLE:    12 TIME:   1.181 TIME LEFT:  2.00D  GRAD.:    29.062 HEAT:  132.8391
 CYCLE:    13 TIME:   1.038 TIME LEFT:  2.00D  GRAD.:    26.057 HEAT:  132.5822
 CYCLE:    14 TIME:   1.163 TIME LEFT:  2.00D  GRAD.:    25.939 HEAT:  132.4252
 CYCLE:    15 TIME:   0.693 TIME LEFT:  2.00D  GRAD.:    32.707 HEAT:  132.1923
 CYCLE:    16 TIME:   1.066 TIME LEFT:  2.00D  GRAD.:    29.088 HEAT:  131.9316
 CYCLE:    17 TIME:   1.105 TIME LEFT:  2.00D  GRAD.:    25.767 HEAT:  131.6258
 TEST ON GRADIENT SATISFIED
                    HOWEVER, A COMPONENT OF GRADIENT IS LARGER THAN  1.00

 CYCLE:    18 TIME:   1.076 TIME LEFT:  2.00D  GRAD.:    23.087 HEAT:  131.3100
 TEST ON GRADIENT SATISFIED
                    HOWEVER, A COMPONENT OF GRADIENT IS LARGER THAN  1.00

 CYCLE:    19 TIME:   1.018 TIME LEFT:  2.00D  GRAD.:    22.111 HEAT:  131.1257
 TEST ON GRADIENT SATISFIED
                    HOWEVER, A COMPONENT OF GRADIENT IS LARGER THAN  1.00

 CYCLE:    20 TIME:   1.076 TIME LEFT:  2.00D  GRAD.:    22.359 HEAT:  130.8635
 TEST ON GRADIENT SATISFIED
                    HOWEVER, A COMPONENT OF GRADIENT IS LARGER THAN  1.00

 CYCLE:    21 TIME:   1.022 TIME LEFT:  2.00D  GRAD.:    21.000 HEAT:  130.6160
 TEST ON GRADIENT SATISFIED
                    HOWEVER, A COMPONENT OF GRADIENT IS LARGER THAN  1.00

 CYCLE:    22 TIME:   0.709 TIME LEFT:  2.00D  GRAD.:    24.303 HEAT:  130.4113
 CYCLE:    23 TIME:   0.702 TIME LEFT:  2.00D  GRAD.:    29.804 HEAT:  130.3733
 CYCLE:    24 TIME:   0.699 TIME LEFT:  2.00D  GRAD.:    32.892 HEAT:  130.2950
 TEST ON GRADIENT SATISFIED
                    HOWEVER, A COMPONENT OF GRADIENT IS LARGER THAN  1.00

 CYCLE:    25 TIME:   1.092 TIME LEFT:  2.00D  GRAD.:    18.560 HEAT:  129.9825
 TEST ON GRADIENT SATISFIED
                    HOWEVER, A COMPONENT OF GRADIENT IS LARGER THAN  1.00

 CYCLE:    26 TIME:   0.714 TIME LEFT:  2.00D  GRAD.:    21.725 HEAT:  129.9536
 TEST ON GRADIENT SATISFIED
                    HOWEVER, A COMPONENT OF GRADIENT IS LARGER THAN  1.00

 CYCLE:    27 TIME:   0.707 TIME LEFT:  2.00D  GRAD.:    20.227 HEAT:  129.8129
 TEST ON GRADIENT SATISFIED
                    HOWEVER, A COMPONENT OF GRADIENT IS LARGER THAN  1.00

 CYCLE:    28 TIME:   1.051 TIME LEFT:  2.00D  GRAD.:    13.661 HEAT:  129.6660
 TEST ON GRADIENT SATISFIED
                    HOWEVER, A COMPONENT OF GRADIENT IS LARGER THAN  1.00

           THERE HAVE BEEN 3 ATTEMPTS TO REDUCE THE GRADIENT.
           DURING THESE ATTEMPTS THE ENERGY DROPPED BY LESS THAN 0.3 KCAL/MOLE
           FURTHER CALCULATION IS NOT JUSTIFIED AT THIS TIME.
           TO CONTINUE, START AGAIN WITH THE WORD "PRECISE"

 -------------------------------------------------------------------------------
PM7 BFGS CHARGE=0
 chassi-G-1a-cdh.xyz



     GRADIENT TEST NOT PASSED, BUT FURTHER WORK NOT JUSTIFIED 
     SCF FIELD WAS ACHIEVED                                   


                              PM7 CALCULATION
                                                       MOPAC2016 (Version: 16.035L)
                                                       Fri Apr 28 02:48:29 2017
                                                       No. of days remaining = 474




          FINAL HEAT OF FORMATION =        129.65304 KCAL/MOL =     542.46832 KJ/MOL


          TOTAL ENERGY            =     -13938.35036 EV
          ELECTRONIC ENERGY       =    -205980.70117 EV  POINT GROUP:     C1  
          CORE-CORE REPULSION     =     192042.35080 EV
          COSMO AREA              =       1571.65 SQUARE ANGSTROMS
          COSMO VOLUME            =       1793.91 CUBIC ANGSTROMS

          GRADIENT NORM           =         19.23491
          IONIZATION POTENTIAL    =          8.416351 EV
          HOMO LUMO ENERGIES (EV) =         -8.416 -1.877
          NO. OF FILLED LEVELS    =        259
          MOLECULAR WEIGHT        =       1308.0246

          MOLECULAR DIMENSIONS (Angstroms)

            Atom       Atom       Distance
            H   196    H   121    46.64980
            H   171    H   146    43.94433
            H   164    H   219     4.03592


          SCF CALCULATIONS        =         53
 
          WALL-CLOCK TIME         =         32.526 SECONDS
          COMPUTATION TIME        =         32.208 SECONDS



       FINAL  POINT  AND  DERIVATIVES

   PARAMETER     ATOM    TYPE            VALUE       GRADIENT
      1          1  C    CARTESIAN X     5.621369     0.510452  KCAL/ANGSTROM
      2          1  C    CARTESIAN Y    -2.181721    -0.296943  KCAL/ANGSTROM
      3          1  C    CARTESIAN Z     0.859572     0.208020  KCAL/ANGSTROM
      4          2  C    CARTESIAN X     4.906110     0.012069  KCAL/ANGSTROM
      5          2  C    CARTESIAN Y    -0.970590    -0.302144  KCAL/ANGSTROM
      6          2  C    CARTESIAN Z     0.816117     0.126601  KCAL/ANGSTROM
      7          3  C    CARTESIAN X     3.453519     0.779570  KCAL/ANGSTROM
      8          3  C    CARTESIAN Y    -0.972391    -0.357160  KCAL/ANGSTROM
      9          3  C    CARTESIAN Z     0.708501    -0.085731  KCAL/ANGSTROM
     10          4  C    CARTESIAN X     2.747867     0.123407  KCAL/ANGSTROM
     11          4  C    CARTESIAN Y    -2.256731    -0.417005  KCAL/ANGSTROM
     12          4  C    CARTESIAN Z     0.680939     0.031198  KCAL/ANGSTROM
     13          5  C    CARTESIAN X     3.513495    -0.687072  KCAL/ANGSTROM
     14          5  C    CARTESIAN Y    -3.497879     0.487628  KCAL/ANGSTROM
     15          5  C    CARTESIAN Z     0.705837    -0.440908  KCAL/ANGSTROM
     16          6  C    CARTESIAN X     4.919508     0.015247  KCAL/ANGSTROM
     17          6  C    CARTESIAN Y    -3.467271    -0.175104  KCAL/ANGSTROM
     18          6  C    CARTESIAN Z     0.775540    -0.078132  KCAL/ANGSTROM
     19          7  C    CARTESIAN X     2.833990    -0.027547  KCAL/ANGSTROM
     20          7  C    CARTESIAN Y    -4.719039    -0.657923  KCAL/ANGSTROM
     21          7  C    CARTESIAN Z     0.667214     0.397846  KCAL/ANGSTROM
     22          8  C    CARTESIAN X     3.529063    -1.750747  KCAL/ANGSTROM
     23          8  C    CARTESIAN Y    -5.929041     0.687564  KCAL/ANGSTROM
     24          8  C    CARTESIAN Z     0.694746    -1.478309  KCAL/ANGSTROM
     25          9  C    CARTESIAN X     4.936813    -0.677690  KCAL/ANGSTROM
     26          9  C    CARTESIAN Y    -5.915934     0.189148  KCAL/ANGSTROM
     27          9  C    CARTESIAN Z     0.746972     1.289524  KCAL/ANGSTROM
     28         10  C    CARTESIAN X     5.603820    -0.836211  KCAL/ANGSTROM
     29         10  C    CARTESIAN Y    -4.690770     0.189145  KCAL/ANGSTROM
     30         10  C    CARTESIAN Z     0.779605    -0.566373  KCAL/ANGSTROM
     31         11  C    CARTESIAN X     7.009720    -1.638567  KCAL/ANGSTROM
     32         11  C    CARTESIAN Y    -2.105672     0.906391  KCAL/ANGSTROM
     33         11  C    CARTESIAN Z     1.023186    -0.710040  KCAL/ANGSTROM
     34         12  C    CARTESIAN X     7.671003     0.212842  KCAL/ANGSTROM
     35         12  C    CARTESIAN Y    -0.886523     0.768601  KCAL/ANGSTROM
     36         12  C    CARTESIAN Z     1.168739     0.281749  KCAL/ANGSTROM
     37         13  C    CARTESIAN X     6.946619    -2.631918  KCAL/ANGSTROM
     38         13  C    CARTESIAN Y     0.318728     0.680649  KCAL/ANGSTROM
     39         13  C    CARTESIAN Z     1.095210     0.030760  KCAL/ANGSTROM
     40         14  C    CARTESIAN X     5.568009     3.169556  KCAL/ANGSTROM
     41         14  C    CARTESIAN Y     0.258065    -0.380733  KCAL/ANGSTROM
     42         14  C    CARTESIAN Z     0.911922     0.230127  KCAL/ANGSTROM
     43         15  N    CARTESIAN X     2.800393    -0.587161  KCAL/ANGSTROM
     44         15  N    CARTESIAN Y     0.170724     0.282232  KCAL/ANGSTROM
     45         15  N    CARTESIAN Z     0.667983     0.419270  KCAL/ANGSTROM
     46         16  C    CARTESIAN X     1.420090    -0.512343  KCAL/ANGSTROM
     47         16  C    CARTESIAN Y     0.150909     0.734233  KCAL/ANGSTROM
     48         16  C    CARTESIAN Z     0.616968    -0.765549  KCAL/ANGSTROM
     49         17  C    CARTESIAN X     0.730818    -0.396564  KCAL/ANGSTROM
     50         17  C    CARTESIAN Y    -1.110645     0.474585  KCAL/ANGSTROM
     51         17  C    CARTESIAN Z     0.616553     0.720707  KCAL/ANGSTROM
     52         18  N    CARTESIAN X     1.433730    -0.611160  KCAL/ANGSTROM
     53         18  N    CARTESIAN Y    -2.299015     0.638243  KCAL/ANGSTROM
     54         18  N    CARTESIAN Z     0.638792     0.154824  KCAL/ANGSTROM
     55         19  C    CARTESIAN X     0.711226     0.229619  KCAL/ANGSTROM
     56         19  C    CARTESIAN Y     1.356458    -0.961715  KCAL/ANGSTROM
     57         19  C    CARTESIAN Z     0.588494     0.672260  KCAL/ANGSTROM
     58         20  C    CARTESIAN X    -0.685351     1.438762  KCAL/ANGSTROM
     59         20  C    CARTESIAN Y     1.316821     0.443241  KCAL/ANGSTROM
     60         20  C    CARTESIAN Z     0.571162     0.057529  KCAL/ANGSTROM
     61         21  C    CARTESIAN X    -1.365210    -0.388982  KCAL/ANGSTROM
     62         21  C    CARTESIAN Y     0.049590    -2.196379  KCAL/ANGSTROM
     63         21  C    CARTESIAN Z     0.590925     0.285614  KCAL/ANGSTROM
     64         22  C    CARTESIAN X    -0.662574     1.904635  KCAL/ANGSTROM
     65         22  C    CARTESIAN Y    -1.156096    -0.264309  KCAL/ANGSTROM
     66         22  C    CARTESIAN Z     0.598988    -0.202959  KCAL/ANGSTROM
     67         23  N    CARTESIAN X    -1.412683     0.803238  KCAL/ANGSTROM
     68         23  N    CARTESIAN Y     2.496039    -0.320315  KCAL/ANGSTROM
     69         23  N    CARTESIAN Z     0.546364    -0.663286  KCAL/ANGSTROM
     70         24  C    CARTESIAN X    -2.728385     0.104415  KCAL/ANGSTROM
     71         24  C    CARTESIAN Y     2.435103     0.983768  KCAL/ANGSTROM
     72         24  C    CARTESIAN Z     0.575314     0.192429  KCAL/ANGSTROM
     73         25  C    CARTESIAN X    -3.412819    -0.521419  KCAL/ANGSTROM
     74         25  C    CARTESIAN Y     1.137278     0.658586  KCAL/ANGSTROM
     75         25  C    CARTESIAN Z     0.630791     0.289188  KCAL/ANGSTROM
     76         26  N    CARTESIAN X    -2.741778     0.987026  KCAL/ANGSTROM
     77         26  N    CARTESIAN Y     0.006971    -0.012252  KCAL/ANGSTROM
     78         26  N    CARTESIAN Z     0.623142     0.281624  KCAL/ANGSTROM
     79         27  C    CARTESIAN X    -3.540696    -0.368082  KCAL/ANGSTROM
     80         27  C    CARTESIAN Y     3.650530    -0.638668  KCAL/ANGSTROM
     81         27  C    CARTESIAN Z     0.572033     0.741270  KCAL/ANGSTROM
     82         28  C    CARTESIAN X    -4.945581     0.446083  KCAL/ANGSTROM
     83         28  C    CARTESIAN Y     3.564222     0.285522  KCAL/ANGSTROM
     84         28  C    CARTESIAN Z     0.641326     0.199262  KCAL/ANGSTROM
     85         29  C    CARTESIAN X    -5.615253     1.356007  KCAL/ANGSTROM
     86         29  C    CARTESIAN Y     2.263123     0.083302  KCAL/ANGSTROM
     87         29  C    CARTESIAN Z     0.719759     0.301711  KCAL/ANGSTROM
     88         30  C    CARTESIAN X    -4.864070    -0.007667  KCAL/ANGSTROM
     89         30  C    CARTESIAN Y     1.077707    -0.414415  KCAL/ANGSTROM
     90         30  C    CARTESIAN Z     0.720149    -0.597510  KCAL/ANGSTROM
     91         31  C    CARTESIAN X    -7.007150     0.058254  KCAL/ANGSTROM
     92         31  C    CARTESIAN Y     2.146843    -0.834251  KCAL/ANGSTROM
     93         31  C    CARTESIAN Z     0.834040    -0.115494  KCAL/ANGSTROM
     94         32  C    CARTESIAN X    -7.634212    -0.631644  KCAL/ANGSTROM
     95         32  C    CARTESIAN Y     0.912115     0.595852  KCAL/ANGSTROM
     96         32  C    CARTESIAN Z     0.983657    -0.241003  KCAL/ANGSTROM
     97         33  C    CARTESIAN X    -6.867744     2.195641  KCAL/ANGSTROM
     98         33  C    CARTESIAN Y    -0.271136    -1.478501  KCAL/ANGSTROM
     99         33  C    CARTESIAN Z     0.978674    -0.696745  KCAL/ANGSTROM
    100         34  C    CARTESIAN X    -5.485646    -1.191663  KCAL/ANGSTROM
    101         34  C    CARTESIAN Y    -0.170394     0.103140  KCAL/ANGSTROM
    102         34  C    CARTESIAN Z     0.838196     1.552375  KCAL/ANGSTROM
    103         35  C    CARTESIAN X    -2.921271    -0.166271  KCAL/ANGSTROM
    104         35  C    CARTESIAN Y     4.904793     1.147461  KCAL/ANGSTROM
    105         35  C    CARTESIAN Z     0.520629     0.051458  KCAL/ANGSTROM
    106         36  C    CARTESIAN X    -3.669139     0.088466  KCAL/ANGSTROM
    107         36  C    CARTESIAN Y     6.082427     0.035305  KCAL/ANGSTROM
    108         36  C    CARTESIAN Z     0.591807    -0.627745  KCAL/ANGSTROM
    109         37  C    CARTESIAN X    -5.070048    -0.156391  KCAL/ANGSTROM
    110         37  C    CARTESIAN Y     6.004507     0.466639  KCAL/ANGSTROM
    111         37  C    CARTESIAN Z     0.704661     1.445646  KCAL/ANGSTROM
    112         38  C    CARTESIAN X    -5.684317    -0.017686  KCAL/ANGSTROM
    113         38  C    CARTESIAN Y     4.753796    -0.698523  KCAL/ANGSTROM
    114         38  C    CARTESIAN Z     0.681751    -1.969096  KCAL/ANGSTROM
    115         39  C    CARTESIAN X    -7.442510    -1.756287  KCAL/ANGSTROM
    116         39  C    CARTESIAN Y    -1.549027    -0.776354  KCAL/ANGSTROM
    117         39  C    CARTESIAN Z     1.116825    -0.032366  KCAL/ANGSTROM
    118         40  C    CARTESIAN X    -3.008666    -0.726284  KCAL/ANGSTROM
    119         40  C    CARTESIAN Y     7.324243     0.737785  KCAL/ANGSTROM
    120         40  C    CARTESIAN Z     0.578098     0.542025  KCAL/ANGSTROM
    121         41  C    CARTESIAN X    -7.907037     0.965533  KCAL/ANGSTROM
    122         41  C    CARTESIAN Y    -2.666683    -2.420475  KCAL/ANGSTROM
    123         41  C    CARTESIAN Z     1.216095    -0.375510  KCAL/ANGSTROM
    124         42  C    CARTESIAN X    -8.494621     0.057446  KCAL/ANGSTROM
    125         42  C    CARTESIAN Y    -3.961383     0.610497  KCAL/ANGSTROM
    126         42  C    CARTESIAN Z     1.332756     0.532295  KCAL/ANGSTROM
    127         43  C    CARTESIAN X    -2.430355     1.674774  KCAL/ANGSTROM
    128         43  C    CARTESIAN Y     8.391549     0.626341  KCAL/ANGSTROM
    129         43  C    CARTESIAN Z     0.558504    -0.915568  KCAL/ANGSTROM
    130         44  C    CARTESIAN X    -1.767447    -0.074326  KCAL/ANGSTROM
    131         44  C    CARTESIAN Y     9.655094     0.846514  KCAL/ANGSTROM
    132         44  C    CARTESIAN Z     0.543557     2.753059  KCAL/ANGSTROM
    133         45  C    CARTESIAN X     2.790776    -1.304450  KCAL/ANGSTROM
    134         45  C    CARTESIAN Y    -7.126083     0.529421  KCAL/ANGSTROM
    135         45  C    CARTESIAN Z     0.677779     0.485581  KCAL/ANGSTROM
    136         46  C    CARTESIAN X     2.140037    -1.768574  KCAL/ANGSTROM
    137         46  C    CARTESIAN Y    -8.150704     0.486590  KCAL/ANGSTROM
    138         46  C    CARTESIAN Z     0.665461    -0.092742  KCAL/ANGSTROM
    139         47  C    CARTESIAN X     1.401726     0.098218  KCAL/ANGSTROM
    140         47  C    CARTESIAN Y    -9.371713     0.117466  KCAL/ANGSTROM
    141         47  C    CARTESIAN Z     0.651282     0.536916  KCAL/ANGSTROM
    142         48  C    CARTESIAN X     7.559987     1.329298  KCAL/ANGSTROM
    143         48  C    CARTESIAN Y     1.581041     0.503277  KCAL/ANGSTROM
    144         48  C    CARTESIAN Z     1.205084     0.185530  KCAL/ANGSTROM
    145         49  C    CARTESIAN X     8.060273    -0.680039  KCAL/ANGSTROM
    146         49  C    CARTESIAN Y     2.685629     2.466054  KCAL/ANGSTROM
    147         49  C    CARTESIAN Z     1.271420    -0.135008  KCAL/ANGSTROM
    148         50  C    CARTESIAN X     8.682585    -1.293398  KCAL/ANGSTROM
    149         50  C    CARTESIAN Y     3.966467    -2.049196  KCAL/ANGSTROM
    150         50  C    CARTESIAN Z     1.344393     1.331651  KCAL/ANGSTROM
    151         51  C    CARTESIAN X    11.631463     0.871844  KCAL/ANGSTROM
    152         51  C    CARTESIAN Y   -19.043847    -0.756925  KCAL/ANGSTROM
    153         51  C    CARTESIAN Z     2.940689     0.197619  KCAL/ANGSTROM
    154         52  C    CARTESIAN X    10.460549     0.837457  KCAL/ANGSTROM
    155         52  C    CARTESIAN Y   -18.106711    -0.727014  KCAL/ANGSTROM
    156         52  C    CARTESIAN Z     3.243125    -0.682083  KCAL/ANGSTROM
    157         53  C    CARTESIAN X    10.793771    -0.208721  KCAL/ANGSTROM
    158         53  C    CARTESIAN Y   -16.658766    -0.413856  KCAL/ANGSTROM
    159         53  C    CARTESIAN Z     2.851818    -0.105974  KCAL/ANGSTROM
    160         54  C    CARTESIAN X     9.594397    -0.427823  KCAL/ANGSTROM
    161         54  C    CARTESIAN Y   -15.731116    -0.556065  KCAL/ANGSTROM
    162         54  C    CARTESIAN Z     3.093985     0.364943  KCAL/ANGSTROM
    163         55  C    CARTESIAN X     9.922647    -0.523777  KCAL/ANGSTROM
    164         55  C    CARTESIAN Y   -14.279637    -0.691765  KCAL/ANGSTROM
    165         55  C    CARTESIAN Z     2.704152    -0.333272  KCAL/ANGSTROM
    166         56  C    CARTESIAN X     8.679900     0.235223  KCAL/ANGSTROM
    167         56  C    CARTESIAN Y   -13.391077     0.372157  KCAL/ANGSTROM
    168         56  C    CARTESIAN Z     2.844159     0.319997  KCAL/ANGSTROM
    169         57  C    CARTESIAN X     8.943185     2.732151  KCAL/ANGSTROM
    170         57  C    CARTESIAN Y   -11.923773     0.473287  KCAL/ANGSTROM
    171         57  C    CARTESIAN Z     2.455369     1.090582  KCAL/ANGSTROM
    172         58  C    CARTESIAN X     7.610933     1.691740  KCAL/ANGSTROM
    173         58  C    CARTESIAN Y   -11.158776     2.883267  KCAL/ANGSTROM
    174         58  C    CARTESIAN Z     2.538726    -1.630943  KCAL/ANGSTROM
    175         59  C    CARTESIAN X     7.693175    -0.405313  KCAL/ANGSTROM
    176         59  C    CARTESIAN Y    -9.671088    -1.422817  KCAL/ANGSTROM
    177         59  C    CARTESIAN Z     2.175084     0.264661  KCAL/ANGSTROM
    178         60  C    CARTESIAN X     6.331541     1.623483  KCAL/ANGSTROM
    179         60  C    CARTESIAN Y    -9.012550    -0.269106  KCAL/ANGSTROM
    180         60  C    CARTESIAN Z     2.460456    -0.083406  KCAL/ANGSTROM
    181         61  C    CARTESIAN X     6.286135     0.818250  KCAL/ANGSTROM
    182         61  C    CARTESIAN Y    -7.507307    -1.380326  KCAL/ANGSTROM
    183         61  C    CARTESIAN Z     2.152316    -0.208374  KCAL/ANGSTROM
    184         62  C    CARTESIAN X     5.722289     1.749347  KCAL/ANGSTROM
    185         62  C    CARTESIAN Y    -7.197557    -0.725284  KCAL/ANGSTROM
    186         62  C    CARTESIAN Z     0.748804    -4.002287  KCAL/ANGSTROM
    187         63  C    CARTESIAN X    21.847991    -1.112800  KCAL/ANGSTROM
    188         63  C    CARTESIAN Y     4.168577    -0.200291  KCAL/ANGSTROM
    189         63  C    CARTESIAN Z     0.173867    -0.131909  KCAL/ANGSTROM
    190         64  C    CARTESIAN X    20.684228    -1.881755  KCAL/ANGSTROM
    191         64  C    CARTESIAN Y     3.601482    -0.574308  KCAL/ANGSTROM
    192         64  C    CARTESIAN Z     0.986179    -0.078095  KCAL/ANGSTROM
    193         65  C    CARTESIAN X    19.415977     7.782359  KCAL/ANGSTROM
    194         65  C    CARTESIAN Y     3.545714     0.393506  KCAL/ANGSTROM
    195         65  C    CARTESIAN Z     0.134716     0.925931  KCAL/ANGSTROM
    196         66  C    CARTESIAN X    18.254273    -3.674233  KCAL/ANGSTROM
    197         66  C    CARTESIAN Y     2.929002    -0.946211  KCAL/ANGSTROM
    198         66  C    CARTESIAN Z     0.933416     0.923561  KCAL/ANGSTROM
    199         67  C    CARTESIAN X    16.988708     1.195752  KCAL/ANGSTROM
    200         67  C    CARTESIAN Y     2.824052     0.128020  KCAL/ANGSTROM
    201         67  C    CARTESIAN Z     0.076150     0.436507  KCAL/ANGSTROM
    202         68  C    CARTESIAN X    15.894700    -0.260488  KCAL/ANGSTROM
    203         68  C    CARTESIAN Y     2.087758    -0.484086  KCAL/ANGSTROM
    204         68  C    CARTESIAN Z     0.858120     0.260614  KCAL/ANGSTROM
    205         69  C    CARTESIAN X    14.626444     1.182247  KCAL/ANGSTROM
    206         69  C    CARTESIAN Y     1.893064    -0.154529  KCAL/ANGSTROM
    207         69  C    CARTESIAN Z     0.017418    -0.644425  KCAL/ANGSTROM
    208         70  C    CARTESIAN X    13.630101    -0.146165  KCAL/ANGSTROM
    209         70  C    CARTESIAN Y     1.041874    -0.269118  KCAL/ANGSTROM
    210         70  C    CARTESIAN Z     0.812321     0.229693  KCAL/ANGSTROM
    211         71  C    CARTESIAN X    12.313309     0.164731  KCAL/ANGSTROM
    212         71  C    CARTESIAN Y     0.808773    -0.883796  KCAL/ANGSTROM
    213         71  C    CARTESIAN Z     0.059785     0.099155  KCAL/ANGSTROM
    214         72  C    CARTESIAN X    11.410414    -0.761169  KCAL/ANGSTROM
    215         72  C    CARTESIAN Y    -0.057843     0.412374  KCAL/ANGSTROM
    216         72  C    CARTESIAN Z     0.945879     0.802248  KCAL/ANGSTROM
    217         73  C    CARTESIAN X     9.988182    -0.344189  KCAL/ANGSTROM
    218         73  C    CARTESIAN Y    -0.208078     0.503854  KCAL/ANGSTROM
    219         73  C    CARTESIAN Z     0.399265    -0.596466  KCAL/ANGSTROM
    220         74  C    CARTESIAN X     9.130565    -0.428609  KCAL/ANGSTROM
    221         74  C    CARTESIAN Y    -0.878917     1.063459  KCAL/ANGSTROM
    222         74  C    CARTESIAN Z     1.485985     0.609122  KCAL/ANGSTROM
    223         75  C    CARTESIAN X   -19.374813     1.157533  KCAL/ANGSTROM
    224         75  C    CARTESIAN Y    -8.012410    -0.711877  KCAL/ANGSTROM
    225         75  C    CARTESIAN Z     0.372347    -0.384320  KCAL/ANGSTROM
    226         76  C    CARTESIAN X   -18.937058    -0.714218  KCAL/ANGSTROM
    227         76  C    CARTESIAN Y    -6.585194     0.532060  KCAL/ANGSTROM
    228         76  C    CARTESIAN Z     0.699756    -0.682033  KCAL/ANGSTROM
    229         77  C    CARTESIAN X   -17.478863     0.677022  KCAL/ANGSTROM
    230         77  C    CARTESIAN Y    -6.355868     0.172862  KCAL/ANGSTROM
    231         77  C    CARTESIAN Z     0.281469     0.296689  KCAL/ANGSTROM
    232         78  C    CARTESIAN X   -17.046047     0.525817  KCAL/ANGSTROM
    233         78  C    CARTESIAN Y    -4.922042     0.371572  KCAL/ANGSTROM
    234         78  C    CARTESIAN Z     0.605343     0.451029  KCAL/ANGSTROM
    235         79  C    CARTESIAN X   -15.609141     0.237654  KCAL/ANGSTROM
    236         79  C    CARTESIAN Y    -4.676579    -0.608815  KCAL/ANGSTROM
    237         79  C    CARTESIAN Z     0.133462    -0.379901  KCAL/ANGSTROM
    238         80  C    CARTESIAN X   -15.185973    -0.099878  KCAL/ANGSTROM
    239         80  C    CARTESIAN Y    -3.239075     0.095622  KCAL/ANGSTROM
    240         80  C    CARTESIAN Z     0.452309    -0.398323  KCAL/ANGSTROM
    241         81  C    CARTESIAN X   -13.777206     0.195952  KCAL/ANGSTROM
    242         81  C    CARTESIAN Y    -2.968550    -1.056107  KCAL/ANGSTROM
    243         81  C    CARTESIAN Z    -0.084345    -1.084430  KCAL/ANGSTROM
    244         82  C    CARTESIAN X   -13.321624    -0.695953  KCAL/ANGSTROM
    245         82  C    CARTESIAN Y    -1.559635    -0.667508  KCAL/ANGSTROM
    246         82  C    CARTESIAN Z     0.307186    -0.830952  KCAL/ANGSTROM
    247         83  C    CARTESIAN X   -11.910231    -0.581874  KCAL/ANGSTROM
    248         83  C    CARTESIAN Y    -1.292602    -0.662130  KCAL/ANGSTROM
    249         83  C    CARTESIAN Z    -0.227955     0.263027  KCAL/ANGSTROM
    250         84  C    CARTESIAN X   -11.322931     0.379402  KCAL/ANGSTROM
    251         84  C    CARTESIAN Y    -0.038773    -0.602906  KCAL/ANGSTROM
    252         84  C    CARTESIAN Z     0.428405    -0.984252  KCAL/ANGSTROM
    253         85  C    CARTESIAN X    -9.841934     0.915872  KCAL/ANGSTROM
    254         85  C    CARTESIAN Y     0.133619    -0.579805  KCAL/ANGSTROM
    255         85  C    CARTESIAN Z     0.070419    -0.403707  KCAL/ANGSTROM
    256         86  C    CARTESIAN X    -9.111566     0.176667  KCAL/ANGSTROM
    257         86  C    CARTESIAN Y     0.864524     0.115120  KCAL/ANGSTROM
    258         86  C    CARTESIAN Z     1.207392     0.618999  KCAL/ANGSTROM
    259         87  C    CARTESIAN X    -9.911312    -1.030338  KCAL/ANGSTROM
    260         87  C    CARTESIAN Y    20.007986     0.435461  KCAL/ANGSTROM
    261         87  C    CARTESIAN Z    -2.122919    -0.064229  KCAL/ANGSTROM
    262         88  C    CARTESIAN X   -10.151508    -0.101810  KCAL/ANGSTROM
    263         88  C    CARTESIAN Y    18.715606    -0.159384  KCAL/ANGSTROM
    264         88  C    CARTESIAN Z    -1.341277     0.319237  KCAL/ANGSTROM
    265         89  C    CARTESIAN X    -9.390393    -0.018416  KCAL/ANGSTROM
    266         89  C    CARTESIAN Y    17.545441     0.069314  KCAL/ANGSTROM
    267         89  C    CARTESIAN Z    -1.978585    -0.031124  KCAL/ANGSTROM
    268         90  C    CARTESIAN X    -9.578041    -0.160362  KCAL/ANGSTROM
    269         90  C    CARTESIAN Y    16.259611     0.148306  KCAL/ANGSTROM
    270         90  C    CARTESIAN Z    -1.163301     0.284003  KCAL/ANGSTROM
    271         91  C    CARTESIAN X    -8.766247    -0.050944  KCAL/ANGSTROM
    272         91  C    CARTESIAN Y    15.109136     0.245343  KCAL/ANGSTROM
    273         91  C    CARTESIAN Z    -1.773969     0.105280  KCAL/ANGSTROM
    274         92  C    CARTESIAN X    -8.858283    -0.218462  KCAL/ANGSTROM
    275         92  C    CARTESIAN Y    13.851915    -0.143790  KCAL/ANGSTROM
    276         92  C    CARTESIAN Z    -0.899666     0.270090  KCAL/ANGSTROM
    277         93  C    CARTESIAN X    -7.970791    -0.111513  KCAL/ANGSTROM
    278         93  C    CARTESIAN Y    12.729050     0.379123  KCAL/ANGSTROM
    279         93  C    CARTESIAN Z    -1.456900    -0.446478  KCAL/ANGSTROM
    280         94  C    CARTESIAN X    -7.974448     0.409566  KCAL/ANGSTROM
    281         94  C    CARTESIAN Y    11.527665     0.611663  KCAL/ANGSTROM
    282         94  C    CARTESIAN Z    -0.503711     0.562312  KCAL/ANGSTROM
    283         95  C    CARTESIAN X    -7.019766     0.534012  KCAL/ANGSTROM
    284         95  C    CARTESIAN Y    10.417523     0.646922  KCAL/ANGSTROM
    285         95  C    CARTESIAN Z    -0.971259    -1.077125  KCAL/ANGSTROM
    286         96  C    CARTESIAN X    -6.965217    -0.244445  KCAL/ANGSTROM
    287         96  C    CARTESIAN Y     9.316430     0.340028  KCAL/ANGSTROM
    288         96  C    CARTESIAN Z     0.096242    -0.049782  KCAL/ANGSTROM
    289         97  C    CARTESIAN X    -5.998661     0.799142  KCAL/ANGSTROM
    290         97  C    CARTESIAN Y     8.177531     0.375245  KCAL/ANGSTROM
    291         97  C    CARTESIAN Z    -0.260971    -0.301219  KCAL/ANGSTROM
    292         98  C    CARTESIAN X    -5.897605    -1.486560  KCAL/ANGSTROM
    293         98  C    CARTESIAN Y     7.228542    -0.742735  KCAL/ANGSTROM
    294         98  C    CARTESIAN Z     0.945689    -1.092971  KCAL/ANGSTROM
    295         99  H    CARTESIAN X     1.738297     0.091790  KCAL/ANGSTROM
    296         99  H    CARTESIAN Y    -4.726746    -0.067474  KCAL/ANGSTROM
    297         99  H    CARTESIAN Z     0.614225    -0.177535  KCAL/ANGSTROM
    298        100  H    CARTESIAN X     6.693520    -0.201870  KCAL/ANGSTROM
    299        100  H    CARTESIAN Y    -4.698040    -0.111218  KCAL/ANGSTROM
    300        100  H    CARTESIAN Z     0.811615    -0.131244  KCAL/ANGSTROM
    301        101  H    CARTESIAN X     7.597930     0.461523  KCAL/ANGSTROM
    302        101  H    CARTESIAN Y    -3.024412    -0.389697  KCAL/ANGSTROM
    303        101  H    CARTESIAN Z     1.059070    -0.020334  KCAL/ANGSTROM
    304        102  H    CARTESIAN X     4.986083    -0.124892  KCAL/ANGSTROM
    305        102  H    CARTESIAN Y     1.186713    -0.571648  KCAL/ANGSTROM
    306        102  H    CARTESIAN Z     0.860549     0.214516  KCAL/ANGSTROM
    307        103  H    CARTESIAN X     1.235285    -1.106253  KCAL/ANGSTROM
    308        103  H    CARTESIAN Y     2.316120     0.035916  KCAL/ANGSTROM
    309        103  H    CARTESIAN Z     0.585290     0.120931  KCAL/ANGSTROM
    310        104  H    CARTESIAN X    -1.200979    -0.829699  KCAL/ANGSTROM
    311        104  H    CARTESIAN Y    -2.108367     0.898121  KCAL/ANGSTROM
    312        104  H    CARTESIAN Z     0.600805    -0.074726  KCAL/ANGSTROM
    313        105  H    CARTESIAN X    -7.623944     0.310396  KCAL/ANGSTROM
    314        105  H    CARTESIAN Y     3.045309    -0.281704  KCAL/ANGSTROM
    315        105  H    CARTESIAN Z     0.818135    -0.180718  KCAL/ANGSTROM
    316        106  H    CARTESIAN X    -4.875035    -0.208851  KCAL/ANGSTROM
    317        106  H    CARTESIAN Y    -1.080957     0.653266  KCAL/ANGSTROM
    318        106  H    CARTESIAN Z     0.823829    -0.338292  KCAL/ANGSTROM
    319        107  H    CARTESIAN X    -1.829891    -0.584017  KCAL/ANGSTROM
    320        107  H    CARTESIAN Y     4.961941     0.114492  KCAL/ANGSTROM
    321        107  H    CARTESIAN Z     0.443331     0.105368  KCAL/ANGSTROM
    322        108  H    CARTESIAN X    -6.773181    -0.009253  KCAL/ANGSTROM
    323        108  H    CARTESIAN Y     4.710091     0.129244  KCAL/ANGSTROM
    324        108  H    CARTESIAN Z     0.730036     0.241300  KCAL/ANGSTROM
    325        109  H    CARTESIAN X    -8.243207    -0.049810  KCAL/ANGSTROM
    326        109  H    CARTESIAN Y    -4.444847     0.162137  KCAL/ANGSTROM
    327        109  H    CARTESIAN Z     2.294902    -0.249929  KCAL/ANGSTROM
    328        110  H    CARTESIAN X    -8.155537     0.141151  KCAL/ANGSTROM
    329        110  H    CARTESIAN Y    -4.646903    -0.649483  KCAL/ANGSTROM
    330        110  H    CARTESIAN Z     0.531887    -0.497011  KCAL/ANGSTROM
    331        111  H    CARTESIAN X    -9.599137    -0.276332  KCAL/ANGSTROM
    332        111  H    CARTESIAN Y    -3.916562     0.226691  KCAL/ANGSTROM
    333        111  H    CARTESIAN Z     1.273845    -0.069947  KCAL/ANGSTROM
    334        112  H    CARTESIAN X    -1.190825    -0.351636  KCAL/ANGSTROM
    335        112  H    CARTESIAN Y     9.826426    -0.827671  KCAL/ANGSTROM
    336        112  H    CARTESIAN Z     1.470074    -0.439118  KCAL/ANGSTROM
    337        113  H    CARTESIAN X    -2.482451    -0.977266  KCAL/ANGSTROM
    338        113  H    CARTESIAN Y    10.494139     0.430057  KCAL/ANGSTROM
    339        113  H    CARTESIAN Z     0.438499    -0.461239  KCAL/ANGSTROM
    340        114  H    CARTESIAN X    -1.053171     0.710212  KCAL/ANGSTROM
    341        114  H    CARTESIAN Y     9.729076    -0.699897  KCAL/ANGSTROM
    342        114  H    CARTESIAN Z    -0.302010    -1.384290  KCAL/ANGSTROM
    343        115  H    CARTESIAN X     1.543659     0.128363  KCAL/ANGSTROM
    344        115  H    CARTESIAN Y    -9.949618     0.063408  KCAL/ANGSTROM
    345        115  H    CARTESIAN Z     1.583683    -0.018433  KCAL/ANGSTROM
    346        116  H    CARTESIAN X     1.709136     0.396837  KCAL/ANGSTROM
    347        116  H    CARTESIAN Y   -10.029714    -0.512096  KCAL/ANGSTROM
    348        116  H    CARTESIAN Z    -0.185048    -0.623389  KCAL/ANGSTROM
    349        117  H    CARTESIAN X     0.314585    -0.155105  KCAL/ANGSTROM
    350        117  H    CARTESIAN Y    -9.199185     0.011357  KCAL/ANGSTROM
    351        117  H    CARTESIAN Z     0.541979    -0.000664  KCAL/ANGSTROM
    352        118  H    CARTESIAN X     9.212024     0.021478  KCAL/ANGSTROM
    353        118  H    CARTESIAN Y     4.114885    -0.017054  KCAL/ANGSTROM
    354        118  H    CARTESIAN Z     2.303944    -0.163838  KCAL/ANGSTROM
    355        119  H    CARTESIAN X     7.952781    -0.153814  KCAL/ANGSTROM
    356        119  H    CARTESIAN Y     4.793206     0.757907  KCAL/ANGSTROM
    357        119  H    CARTESIAN Z     1.247379    -0.223640  KCAL/ANGSTROM
    358        120  H    CARTESIAN X     9.434330     1.550753  KCAL/ANGSTROM
    359        120  H    CARTESIAN Y     4.109915     0.741826  KCAL/ANGSTROM
    360        120  H    CARTESIAN Z     0.539902    -1.537116  KCAL/ANGSTROM
    361        121  H    CARTESIAN X    11.398082     0.031036  KCAL/ANGSTROM
    362        121  H    CARTESIAN Y   -20.076464    -0.470185  KCAL/ANGSTROM
    363        121  H    CARTESIAN Z     3.224484    -0.087007  KCAL/ANGSTROM
    364        122  H    CARTESIAN X    12.534337    -0.049983  KCAL/ANGSTROM
    365        122  H    CARTESIAN Y   -18.747913    -0.215297  KCAL/ANGSTROM
    366        122  H    CARTESIAN Z     3.484951    -0.308077  KCAL/ANGSTROM
    367        123  H    CARTESIAN X    11.877293     0.166529  KCAL/ANGSTROM
    368        123  H    CARTESIAN Y   -19.045171    -0.133822  KCAL/ANGSTROM
    369        123  H    CARTESIAN Z     1.872341    -0.296510  KCAL/ANGSTROM
    370        124  H    CARTESIAN X     9.557589    -0.104388  KCAL/ANGSTROM
    371        124  H    CARTESIAN Y   -18.446448    -0.073308  KCAL/ANGSTROM
    372        124  H    CARTESIAN Z     2.701874     0.350390  KCAL/ANGSTROM
    373        125  H    CARTESIAN X    10.198468    -1.001303  KCAL/ANGSTROM
    374        125  H    CARTESIAN Y   -18.156555    -0.029213  KCAL/ANGSTROM
    375        125  H    CARTESIAN Z     4.318854     1.148998  KCAL/ANGSTROM
    376        126  H    CARTESIAN X    11.669124     0.053917  KCAL/ANGSTROM
    377        126  H    CARTESIAN Y   -16.307288    -0.258236  KCAL/ANGSTROM
    378        126  H    CARTESIAN Z     3.428370    -0.010347  KCAL/ANGSTROM
    379        127  H    CARTESIAN X    11.095089     0.047678  KCAL/ANGSTROM
    380        127  H    CARTESIAN Y   -16.615486     0.118190  KCAL/ANGSTROM
    381        127  H    CARTESIAN Z     1.788911     0.085810  KCAL/ANGSTROM
    382        128  H    CARTESIAN X     8.723080     0.039721  KCAL/ANGSTROM
    383        128  H    CARTESIAN Y   -16.088295    -0.069361  KCAL/ANGSTROM
    384        128  H    CARTESIAN Z     2.514263     0.091747  KCAL/ANGSTROM
    385        129  H    CARTESIAN X     9.291673     0.017549  KCAL/ANGSTROM
    386        129  H    CARTESIAN Y   -15.776898    -0.301922  KCAL/ANGSTROM
    387        129  H    CARTESIAN Z     4.156513     0.135063  KCAL/ANGSTROM
    388        130  H    CARTESIAN X    10.739983    -0.159185  KCAL/ANGSTROM
    389        130  H    CARTESIAN Y   -13.893684    -0.045141  KCAL/ANGSTROM
    390        130  H    CARTESIAN Z     3.340099     0.095689  KCAL/ANGSTROM
    391        131  H    CARTESIAN X    10.299672    -0.146490  KCAL/ANGSTROM
    392        131  H    CARTESIAN Y   -14.240139     0.228383  KCAL/ANGSTROM
    393        131  H    CARTESIAN Z     1.666560     0.393811  KCAL/ANGSTROM
    394        132  H    CARTESIAN X     7.864890    -0.478151  KCAL/ANGSTROM
    395        132  H    CARTESIAN Y   -13.799040    -0.248440  KCAL/ANGSTROM
    396        132  H    CARTESIAN Z     2.213643    -0.370531  KCAL/ANGSTROM
    397        133  H    CARTESIAN X     8.308503     0.047023  KCAL/ANGSTROM
    398        133  H    CARTESIAN Y   -13.434078     0.156076  KCAL/ANGSTROM
    399        133  H    CARTESIAN Z     3.885556    -0.073374  KCAL/ANGSTROM
    400        134  H    CARTESIAN X     9.696704     0.179144  KCAL/ANGSTROM
    401        134  H    CARTESIAN Y   -11.477412    -0.583422  KCAL/ANGSTROM
    402        134  H    CARTESIAN Z     3.125086    -0.274894  KCAL/ANGSTROM
    403        135  H    CARTESIAN X     9.364173     0.526731  KCAL/ANGSTROM
    404        135  H    CARTESIAN Y   -11.862912    -0.171885  KCAL/ANGSTROM
    405        135  H    CARTESIAN Z     1.436333    -0.331127  KCAL/ANGSTROM
    406        136  H    CARTESIAN X     6.871344    -0.245774  KCAL/ANGSTROM
    407        136  H    CARTESIAN Y   -11.651359    -0.449216  KCAL/ANGSTROM
    408        136  H    CARTESIAN Z     1.874283    -0.717853  KCAL/ANGSTROM
    409        137  H    CARTESIAN X     7.208883    -0.219137  KCAL/ANGSTROM
    410        137  H    CARTESIAN Y   -11.261054    -0.291392  KCAL/ANGSTROM
    411        137  H    CARTESIAN Z     3.569473     1.404426  KCAL/ANGSTROM
    412        138  H    CARTESIAN X     8.488622    -0.129410  KCAL/ANGSTROM
    413        138  H    CARTESIAN Y    -9.172637     0.297195  KCAL/ANGSTROM
    414        138  H    CARTESIAN Z     2.756489    -0.083974  KCAL/ANGSTROM
    415        139  H    CARTESIAN X     7.965286    -0.155314  KCAL/ANGSTROM
    416        139  H    CARTESIAN Y    -9.544493     0.102499  KCAL/ANGSTROM
    417        139  H    CARTESIAN Z     1.112866     0.100835  KCAL/ANGSTROM
    418        140  H    CARTESIAN X     5.538793    -0.611412  KCAL/ANGSTROM
    419        140  H    CARTESIAN Y    -9.542917    -0.731858  KCAL/ANGSTROM
    420        140  H    CARTESIAN Z     1.896291    -0.317971  KCAL/ANGSTROM
    421        141  H    CARTESIAN X     6.072835    -0.438436  KCAL/ANGSTROM
    422        141  H    CARTESIAN Y    -9.166126    -0.089145  KCAL/ANGSTROM
    423        141  H    CARTESIAN Z     3.527850     0.244765  KCAL/ANGSTROM
    424        142  H    CARTESIAN X     5.657850    -0.770427  KCAL/ANGSTROM
    425        142  H    CARTESIAN Y    -7.001729     1.122269  KCAL/ANGSTROM
    426        142  H    CARTESIAN Z     2.918627     1.625404  KCAL/ANGSTROM
    427        143  H    CARTESIAN X     7.291143     0.051342  KCAL/ANGSTROM
    428        143  H    CARTESIAN Y    -7.062544    -0.228579  KCAL/ANGSTROM
    429        143  H    CARTESIAN Z     2.260232     0.014898  KCAL/ANGSTROM
    430        144  H    CARTESIAN X     6.544714    -2.374113  KCAL/ANGSTROM
    431        144  H    CARTESIAN Y    -7.147204    -0.134990  KCAL/ANGSTROM
    432        144  H    CARTESIAN Z     0.016617     2.267768  KCAL/ANGSTROM
    433        145  H    CARTESIAN X     5.093144     0.834340  KCAL/ANGSTROM
    434        145  H    CARTESIAN Y    -8.045469    -0.612524  KCAL/ANGSTROM
    435        145  H    CARTESIAN Z     0.406753     0.597799  KCAL/ANGSTROM
    436        146  H    CARTESIAN X    22.760220    -0.120002  KCAL/ANGSTROM
    437        146  H    CARTESIAN Y     4.232010    -0.029015  KCAL/ANGSTROM
    438        146  H    CARTESIAN Z     0.776853     0.035542  KCAL/ANGSTROM
    439        147  H    CARTESIAN X    21.625523    -0.099377  KCAL/ANGSTROM
    440        147  H    CARTESIAN Y     5.176079    -0.000307  KCAL/ANGSTROM
    441        147  H    CARTESIAN Z    -0.194987    -0.046918  KCAL/ANGSTROM
    442        148  H    CARTESIAN X    22.070462    -0.123239  KCAL/ANGSTROM
    443        148  H    CARTESIAN Y     3.540318    -0.186247  KCAL/ANGSTROM
    444        148  H    CARTESIAN Z    -0.696220    -0.054659  KCAL/ANGSTROM
    445        149  H    CARTESIAN X    20.937666    -0.452026  KCAL/ANGSTROM
    446        149  H    CARTESIAN Y     2.590816     0.454625  KCAL/ANGSTROM
    447        149  H    CARTESIAN Z     1.356167    -0.355492  KCAL/ANGSTROM
    448        150  H    CARTESIAN X    20.511725    -0.105322  KCAL/ANGSTROM
    449        150  H    CARTESIAN Y     4.219715    -0.139055  KCAL/ANGSTROM
    450        150  H    CARTESIAN Z     1.886985    -0.191207  KCAL/ANGSTROM
    451        151  H    CARTESIAN X    19.134879    -0.992396  KCAL/ANGSTROM
    452        151  H    CARTESIAN Y     4.561401     1.048309  KCAL/ANGSTROM
    453        151  H    CARTESIAN Z    -0.207198    -0.276733  KCAL/ANGSTROM
    454        152  H    CARTESIAN X    19.592869    -0.515493  KCAL/ANGSTROM
    455        152  H    CARTESIAN Y     2.955956    -0.463320  KCAL/ANGSTROM
    456        152  H    CARTESIAN Z    -0.785493    -0.943254  KCAL/ANGSTROM
    457        153  H    CARTESIAN X    18.546059    -0.155223  KCAL/ANGSTROM
    458        153  H    CARTESIAN Y     1.926461     0.045725  KCAL/ANGSTROM
    459        153  H    CARTESIAN Z     1.299203    -0.022252  KCAL/ANGSTROM
    460        154  H    CARTESIAN X    18.051876    -0.218016  KCAL/ANGSTROM
    461        154  H    CARTESIAN Y     3.533897    -0.043875  KCAL/ANGSTROM
    462        154  H    CARTESIAN Z     1.836877     0.369594  KCAL/ANGSTROM
    463        155  H    CARTESIAN X    16.638318    -0.211183  KCAL/ANGSTROM
    464        155  H    CARTESIAN Y     3.830166     0.193210  KCAL/ANGSTROM
    465        155  H    CARTESIAN Z    -0.218600     0.060568  KCAL/ANGSTROM
    466        156  H    CARTESIAN X    17.207289    -0.058108  KCAL/ANGSTROM
    467        156  H    CARTESIAN Y     2.289562    -0.139864  KCAL/ANGSTROM
    468        156  H    CARTESIAN Z    -0.867448    -0.301620  KCAL/ANGSTROM
    469        157  H    CARTESIAN X    16.274006    -0.317875  KCAL/ANGSTROM
    470        157  H    CARTESIAN Y     1.102824     0.182331  KCAL/ANGSTROM
    471        157  H    CARTESIAN Z     1.191526    -0.088857  KCAL/ANGSTROM
    472        158  H    CARTESIAN X    15.651180    -0.144047  KCAL/ANGSTROM
    473        158  H    CARTESIAN Y     2.646314     0.042404  KCAL/ANGSTROM
    474        158  H    CARTESIAN Z     1.782072     0.265339  KCAL/ANGSTROM
    475        159  H    CARTESIAN X    14.180138    -0.282882  KCAL/ANGSTROM
    476        159  H    CARTESIAN Y     2.870209     0.212270  KCAL/ANGSTROM
    477        159  H    CARTESIAN Z    -0.241954    -0.027011  KCAL/ANGSTROM
    478        160  H    CARTESIAN X    14.868692    -0.280508  KCAL/ANGSTROM
    479        160  H    CARTESIAN Y     1.404564     0.362475  KCAL/ANGSTROM
    480        160  H    CARTESIAN Z    -0.941804     0.775752  KCAL/ANGSTROM
    481        161  H    CARTESIAN X    14.090142    -0.323176  KCAL/ANGSTROM
    482        161  H    CARTESIAN Y     0.065892     0.074244  KCAL/ANGSTROM
    483        161  H    CARTESIAN Z     1.060659     0.078378  KCAL/ANGSTROM
    484        162  H    CARTESIAN X    13.419340    -0.076011  KCAL/ANGSTROM
    485        162  H    CARTESIAN Y     1.531314    -0.110345  KCAL/ANGSTROM
    486        162  H    CARTESIAN Z     1.783396     0.000425  KCAL/ANGSTROM
    487        163  H    CARTESIAN X    11.827088    -0.037968  KCAL/ANGSTROM
    488        163  H    CARTESIAN Y     1.773430     0.952480  KCAL/ANGSTROM
    489        163  H    CARTESIAN Z    -0.177639    -0.808485  KCAL/ANGSTROM
    490        164  H    CARTESIAN X    12.495815    -0.166916  KCAL/ANGSTROM
    491        164  H    CARTESIAN Y     0.318081     0.274567  KCAL/ANGSTROM
    492        164  H    CARTESIAN Z    -0.911844    -0.079595  KCAL/ANGSTROM
    493        165  H    CARTESIAN X    11.866228    -0.394529  KCAL/ANGSTROM
    494        165  H    CARTESIAN Y    -1.057237     0.475558  KCAL/ANGSTROM
    495        165  H    CARTESIAN Z     1.076333    -0.045155  KCAL/ANGSTROM
    496        166  H    CARTESIAN X    11.366450    -0.026242  KCAL/ANGSTROM
    497        166  H    CARTESIAN Y     0.388374    -0.527948  KCAL/ANGSTROM
    498        166  H    CARTESIAN Z     1.958228    -1.312105  KCAL/ANGSTROM
    499        167  H    CARTESIAN X     9.575597     0.065460  KCAL/ANGSTROM
    500        167  H    CARTESIAN Y     0.781554     0.555242  KCAL/ANGSTROM
    501        167  H    CARTESIAN Z     0.124840    -0.038877  KCAL/ANGSTROM
    502        168  H    CARTESIAN X     9.977299    -0.077072  KCAL/ANGSTROM
    503        168  H    CARTESIAN Y    -0.803131     0.257126  KCAL/ANGSTROM
    504        168  H    CARTESIAN Z    -0.530163    -0.185167  KCAL/ANGSTROM
    505        169  H    CARTESIAN X     9.508519     0.067039  KCAL/ANGSTROM
    506        169  H    CARTESIAN Y    -1.907863    -0.566116  KCAL/ANGSTROM
    507        169  H    CARTESIAN Z     1.662880     0.170338  KCAL/ANGSTROM
    508        170  H    CARTESIAN X     9.275138    -0.218760  KCAL/ANGSTROM
    509        170  H    CARTESIAN Y    -0.347026    -0.475059  KCAL/ANGSTROM
    510        170  H    CARTESIAN Z     2.453568    -0.224468  KCAL/ANGSTROM
    511        171  H    CARTESIAN X   -20.413861    -0.187590  KCAL/ANGSTROM
    512        171  H    CARTESIAN Y    -8.187903     0.069559  KCAL/ANGSTROM
    513        171  H    CARTESIAN Z     0.673565     0.090319  KCAL/ANGSTROM
    514        172  H    CARTESIAN X   -18.752954    -0.313301  KCAL/ANGSTROM
    515        172  H    CARTESIAN Y    -8.749976     0.574426  KCAL/ANGSTROM
    516        172  H    CARTESIAN Z     0.889208    -0.160745  KCAL/ANGSTROM
    517        173  H    CARTESIAN X   -19.304579     0.024652  KCAL/ANGSTROM
    518        173  H    CARTESIAN Y    -8.211047     0.736277  KCAL/ANGSTROM
    519        173  H    CARTESIAN Z    -0.701623     0.723501  KCAL/ANGSTROM
    520        174  H    CARTESIAN X   -19.596294     0.331972  KCAL/ANGSTROM
    521        174  H    CARTESIAN Y    -5.859169    -0.099004  KCAL/ANGSTROM
    522        174  H    CARTESIAN Z     0.189249     0.131602  KCAL/ANGSTROM
    523        175  H    CARTESIAN X   -19.050403     0.641791  KCAL/ANGSTROM
    524        175  H    CARTESIAN Y    -6.391495     0.032595  KCAL/ANGSTROM
    525        175  H    CARTESIAN Z     1.782319    -0.475835  KCAL/ANGSTROM
    526        176  H    CARTESIAN X   -16.817251     0.190495  KCAL/ANGSTROM
    527        176  H    CARTESIAN Y    -7.077729     0.089966  KCAL/ANGSTROM
    528        176  H    CARTESIAN Z     0.795088     0.108559  KCAL/ANGSTROM
    529        177  H    CARTESIAN X   -17.364158    -0.383126  KCAL/ANGSTROM
    530        177  H    CARTESIAN Y    -6.554447    -0.020701  KCAL/ANGSTROM
    531        177  H    CARTESIAN Z    -0.800134     0.186135  KCAL/ANGSTROM
    532        178  H    CARTESIAN X   -17.731821    -0.134823  KCAL/ANGSTROM
    533        178  H    CARTESIAN Y    -4.199847     0.222866  KCAL/ANGSTROM
    534        178  H    CARTESIAN Z     0.122731     0.056802  KCAL/ANGSTROM
    535        179  H    CARTESIAN X   -17.130532    -0.417450  KCAL/ANGSTROM
    536        179  H    CARTESIAN Y    -4.736142     0.052392  KCAL/ANGSTROM
    537        179  H    CARTESIAN Z     1.692363     0.115788  KCAL/ANGSTROM
    538        180  H    CARTESIAN X   -14.918683     0.360729  KCAL/ANGSTROM
    539        180  H    CARTESIAN Y    -5.392010     0.199001  KCAL/ANGSTROM
    540        180  H    CARTESIAN Z     0.617555     0.040626  KCAL/ANGSTROM
    541        181  H    CARTESIAN X   -15.524556     0.615361  KCAL/ANGSTROM
    542        181  H    CARTESIAN Y    -4.859982     0.788882  KCAL/ANGSTROM
    543        181  H    CARTESIAN Z    -0.953252     0.405105  KCAL/ANGSTROM
    544        182  H    CARTESIAN X   -15.904078     0.022266  KCAL/ANGSTROM
    545        182  H    CARTESIAN Y    -2.522022     0.033013  KCAL/ANGSTROM
    546        182  H    CARTESIAN Z     0.012672     0.078211  KCAL/ANGSTROM
    547        183  H    CARTESIAN X   -15.219299    -0.098271  KCAL/ANGSTROM
    548        183  H    CARTESIAN Y    -3.069533    -0.197828  KCAL/ANGSTROM
    549        183  H    CARTESIAN Z     1.544698    -0.074927  KCAL/ANGSTROM
    550        184  H    CARTESIAN X   -13.067725     0.356692  KCAL/ANGSTROM
    551        184  H    CARTESIAN Y    -3.718879     0.209388  KCAL/ANGSTROM
    552        184  H    CARTESIAN Z     0.313034     0.373776  KCAL/ANGSTROM
    553        185  H    CARTESIAN X   -13.759367     0.021503  KCAL/ANGSTROM
    554        185  H    CARTESIAN Y    -3.077068     0.897179  KCAL/ANGSTROM
    555        185  H    CARTESIAN Z    -1.182830     1.125456  KCAL/ANGSTROM
    556        186  H    CARTESIAN X   -14.030100    -0.342412  KCAL/ANGSTROM
    557        186  H    CARTESIAN Y    -0.803763    -0.076423  KCAL/ANGSTROM
    558        186  H    CARTESIAN Z    -0.077321     0.405614  KCAL/ANGSTROM
    559        187  H    CARTESIAN X   -13.336470     0.374072  KCAL/ANGSTROM
    560        187  H    CARTESIAN Y    -1.448880     0.700230  KCAL/ANGSTROM
    561        187  H    CARTESIAN Z     1.409415     0.585062  KCAL/ANGSTROM
    562        188  H    CARTESIAN X   -11.259274    -0.262143  KCAL/ANGSTROM
    563        188  H    CARTESIAN Y    -2.163725     0.142363  KCAL/ANGSTROM
    564        188  H    CARTESIAN Z    -0.021662     0.002411  KCAL/ANGSTROM
    565        189  H    CARTESIAN X   -11.926339     0.140268  KCAL/ANGSTROM
    566        189  H    CARTESIAN Y    -1.182054    -0.037515  KCAL/ANGSTROM
    567        189  H    CARTESIAN Z    -1.327148    -0.045974  KCAL/ANGSTROM
    568        190  H    CARTESIAN X   -11.892792     0.687482  KCAL/ANGSTROM
    569        190  H    CARTESIAN Y     0.857741    -0.084180  KCAL/ANGSTROM
    570        190  H    CARTESIAN Z     0.126814     0.026867  KCAL/ANGSTROM
    571        191  H    CARTESIAN X   -11.443056    -0.051942  KCAL/ANGSTROM
    572        191  H    CARTESIAN Y    -0.114767    -0.159343  KCAL/ANGSTROM
    573        191  H    CARTESIAN Z     1.527789     0.338022  KCAL/ANGSTROM
    574        192  H    CARTESIAN X    -9.374429    -0.017521  KCAL/ANGSTROM
    575        192  H    CARTESIAN Y    -0.854215    -0.338599  KCAL/ANGSTROM
    576        192  H    CARTESIAN Z    -0.110789     0.174137  KCAL/ANGSTROM
    577        193  H    CARTESIAN X    -9.734615    -0.603574  KCAL/ANGSTROM
    578        193  H    CARTESIAN Y     0.684492    -0.729946  KCAL/ANGSTROM
    579        193  H    CARTESIAN Z    -0.879871     0.209334  KCAL/ANGSTROM
    580        194  H    CARTESIAN X    -9.536552     0.316163  KCAL/ANGSTROM
    581        194  H    CARTESIAN Y     1.881474     0.068245  KCAL/ANGSTROM
    582        194  H    CARTESIAN Z     1.323841    -0.191545  KCAL/ANGSTROM
    583        195  H    CARTESIAN X    -9.309702     0.309308  KCAL/ANGSTROM
    584        195  H    CARTESIAN Y     0.349254     0.260419  KCAL/ANGSTROM
    585        195  H    CARTESIAN Z     2.174320     0.328732  KCAL/ANGSTROM
    586        196  H    CARTESIAN X   -10.450665     0.420271  KCAL/ANGSTROM
    587        196  H    CARTESIAN Y    20.848217    -0.519179  KCAL/ANGSTROM
    588        196  H    CARTESIAN Z    -1.675208    -0.129899  KCAL/ANGSTROM
    589        197  H    CARTESIAN X   -10.244315     0.197798  KCAL/ANGSTROM
[...]
   34          C          -0.075393        4.0754     1.09312     2.98227
   35          C          -0.076598        4.0766     1.09275     2.98385
   36          C          -0.004098        4.0041     1.04055     2.96355
   37          C           0.059268        3.9407     1.07586     2.86487
   38          C          -0.194990        4.1950     1.08240     3.11259
   39          C          -0.127486        4.1275     1.08267     3.04481
   40          C          -0.129182        4.1292     1.08258     3.04661
   41          C          -0.040468        4.0405     1.09376     2.94671
   42          C          -0.404711        4.4047     1.03284     3.37187
   43          C          -0.040604        4.0406     1.09410     2.94651
   44          C          -0.404663        4.4047     1.03350     3.37116
   45          C          -0.129465        4.1295     1.08264     3.04682
   46          C          -0.039867        4.0399     1.09352     2.94635
   47          C          -0.404647        4.4046     1.03284     3.37181
   48          C          -0.128293        4.1283     1.08244     3.04585
   49          C          -0.039062        4.0391     1.09359     2.94547
   50          C          -0.404903        4.4049     1.03286     3.37204
   51          C          -0.439337        4.4393     1.05219     3.38714
   52          C          -0.250866        4.2509     1.05583     3.19504
   53          C          -0.272182        4.2722     1.06032     3.21187
   54          C          -0.274014        4.2740     1.06072     3.21329
   55          C          -0.272051        4.2721     1.05984     3.21221
   56          C          -0.272348        4.2723     1.06137     3.21098
   57          C          -0.271626        4.2716     1.06064     3.21098
   58          C          -0.276339        4.2763     1.06162     3.21472
   59          C          -0.268834        4.2688     1.05977     3.20907
   60          C          -0.273360        4.2734     1.06200     3.21136
   61          C          -0.258686        4.2587     1.06048     3.19821
   62          C          -0.295355        4.2954     1.05875     3.23660
   63          C          -0.439571        4.4396     1.05208     3.38749
   64          C          -0.250918        4.2509     1.05436     3.19656
   65          C          -0.272033        4.2720     1.06046     3.21157
   66          C          -0.275120        4.2751     1.06083     3.21429
   67          C          -0.272192        4.2722     1.05944     3.21275
   68          C          -0.273004        4.2730     1.06037     3.21263
   69          C          -0.272892        4.2729     1.05922     3.21367
   70          C          -0.273953        4.2740     1.06076     3.21319
   71          C          -0.270043        4.2700     1.05932     3.21072
   72          C          -0.275162        4.2752     1.06026     3.21490
   73          C          -0.264671        4.2647     1.05949     3.20518
   74          C          -0.293815        4.2938     1.05792     3.23590
   75          C          -0.439725        4.4397     1.05185     3.38788
   76          C          -0.251199        4.2512     1.05531     3.19589
   77          C          -0.272433        4.2724     1.06001     3.21243
   78          C          -0.274665        4.2747     1.05974     3.21493
   79          C          -0.272648        4.2726     1.05952     3.21313
   80          C          -0.273366        4.2734     1.05961     3.21375
   81          C          -0.271887        4.2719     1.05952     3.21237
   82          C          -0.274282        4.2743     1.06002     3.21426
   83          C          -0.270908        4.2709     1.05999     3.21091
   84          C          -0.274716        4.2747     1.06014     3.21457
   85          C          -0.267476        4.2675     1.05982     3.20766
   86          C          -0.292317        4.2923     1.05789     3.23443
   87          C          -0.439801        4.4398     1.05216     3.38764
   88          C          -0.250940        4.2509     1.05550     3.19544
   89          C          -0.272272        4.2723     1.06012     3.21215
   90          C          -0.274443        4.2744     1.06012     3.21432
   91          C          -0.272294        4.2723     1.05996     3.21233
   92          C          -0.272227        4.2722     1.06032     3.21191
   93          C          -0.272788        4.2728     1.05984     3.21295
   94          C          -0.274110        4.2741     1.06044     3.21367
   95          C          -0.269862        4.2699     1.05979     3.21007
   96          C          -0.275016        4.2750     1.06120     3.21381
   97          C          -0.262193        4.2622     1.05970     3.20249
   98          C          -0.293957        4.2940     1.05787     3.23609
   99          H           0.190416        0.8096     0.80958
  100          H           0.161277        0.8387     0.83872
  101          H           0.160779        0.8392     0.83922
  102          H           0.191353        0.8086     0.80865
  103          H           0.200969        0.7990     0.79903
  104          H           0.202114        0.7979     0.79789
  105          H           0.160317        0.8397     0.83968
  106          H           0.191545        0.8085     0.80846
  107          H           0.188487        0.8115     0.81151
  108          H           0.161170        0.8388     0.83883
  109          H           0.170246        0.8298     0.82975
  110          H           0.170088        0.8299     0.82991
  111          H           0.167701        0.8323     0.83230
  112          H           0.169661        0.8303     0.83034
  113          H           0.168132        0.8319     0.83187
  114          H           0.170461        0.8295     0.82954
  115          H           0.168487        0.8315     0.83151
  116          H           0.168363        0.8316     0.83164
  117          H           0.169556        0.8304     0.83044
  118          H           0.168819        0.8312     0.83118
  119          H           0.170048        0.8300     0.82995
  120          H           0.169061        0.8309     0.83094
  121          H           0.140057        0.8599     0.85994
  122          H           0.142309        0.8577     0.85769
  123          H           0.142291        0.8577     0.85771
  124          H           0.133159        0.8668     0.86684
  125          H           0.133388        0.8666     0.86661
  126          H           0.136382        0.8636     0.86362
  127          H           0.136686        0.8633     0.86331
  128          H           0.135881        0.8641     0.86412
  129          H           0.135835        0.8642     0.86417
  130          H           0.136515        0.8635     0.86349
  131          H           0.136785        0.8632     0.86321
  132          H           0.135820        0.8642     0.86418
  133          H           0.135720        0.8643     0.86428
  134          H           0.136115        0.8639     0.86389
  135          H           0.136607        0.8634     0.86339
  136          H           0.135697        0.8643     0.86430
  137          H           0.136513        0.8635     0.86349
  138          H           0.135033        0.8650     0.86497
  139          H           0.136867        0.8631     0.86313
  140          H           0.139326        0.8607     0.86067
  141          H           0.136127        0.8639     0.86387
  142          H           0.146876        0.8531     0.85312
  143          H           0.138622        0.8614     0.86138
  144          H           0.149979        0.8500     0.85002
  145          H           0.159040        0.8410     0.84096
  146          H           0.139868        0.8601     0.86013
  147          H           0.142322        0.8577     0.85768
  148          H           0.142384        0.8576     0.85762
  149          H           0.133845        0.8662     0.86616
  150          H           0.133557        0.8664     0.86644
  151          H           0.136197        0.8638     0.86380
  152          H           0.137045        0.8630     0.86295
  153          H           0.136398        0.8636     0.86360
  154          H           0.135545        0.8645     0.86445
  155          H           0.136015        0.8640     0.86399
  156          H           0.137509        0.8625     0.86249
  157          H           0.136767        0.8632     0.86323
  158          H           0.135300        0.8647     0.86470
  159          H           0.136210        0.8638     0.86379
  160          H           0.137303        0.8627     0.86270
  161          H           0.135497        0.8645     0.86450
  162          H           0.135696        0.8643     0.86430
  163          H           0.137055        0.8629     0.86295
  164          H           0.137563        0.8624     0.86244
  165          H           0.134967        0.8650     0.86503
  166          H           0.137183        0.8628     0.86282
  167          H           0.152415        0.8476     0.84758
  168          H           0.141393        0.8586     0.85861
  169          H           0.146649        0.8534     0.85335
  170          H           0.158270        0.8417     0.84173
  171          H           0.140258        0.8597     0.85974
  172          H           0.142175        0.8578     0.85783
  173          H           0.142370        0.8576     0.85763
  174          H           0.133834        0.8662     0.86617
  175          H           0.133450        0.8666     0.86655
  176          H           0.136024        0.8640     0.86398
  177          H           0.136791        0.8632     0.86321
  178          H           0.136908        0.8631     0.86309
  179          H           0.136195        0.8638     0.86380
  180          H           0.135512        0.8645     0.86449
  181          H           0.137006        0.8630     0.86299
  182          H           0.136793        0.8632     0.86321
  183          H           0.136290        0.8637     0.86371
  184          H           0.135331        0.8647     0.86467
  185          H           0.137012        0.8630     0.86299
  186          H           0.135886        0.8641     0.86411
  187          H           0.136576        0.8634     0.86342
  188          H           0.136854        0.8631     0.86315
  189          H           0.137519        0.8625     0.86248
  190          H           0.135136        0.8649     0.86486
  191          H           0.137838        0.8622     0.86216
  192          H           0.153737        0.8463     0.84626
  193          H           0.141282        0.8587     0.85872
  194          H           0.146483        0.8535     0.85352
  195          H           0.158318        0.8417     0.84168
  196          H           0.139937        0.8601     0.86006
  197          H           0.142409        0.8576     0.85759
  198          H           0.142256        0.8577     0.85774
  199          H           0.133520        0.8665     0.86648
  200          H           0.133539        0.8665     0.86646
  201          H           0.136453        0.8635     0.86355
  202          H           0.136504        0.8635     0.86350
  203          H           0.136283        0.8637     0.86372
  204          H           0.136215        0.8638     0.86379
  205          H           0.136651        0.8633     0.86335
  206          H           0.136419        0.8636     0.86358
  207          H           0.136142        0.8639     0.86386
  208          H           0.136072        0.8639     0.86393
  209          H           0.136951        0.8630     0.86305
  210          H           0.136703        0.8633     0.86330
  211          H           0.135861        0.8641     0.86414
  212          H           0.134957        0.8650     0.86504
  213          H           0.138228        0.8618     0.86177
  214          H           0.136840        0.8632     0.86316
  215          H           0.136309        0.8637     0.86369
  216          H           0.135570        0.8644     0.86443
  217          H           0.143577        0.8564     0.85642
  218          H           0.147949        0.8521     0.85205
  219          H           0.157740        0.8423     0.84226
  220          H           0.147309        0.8527     0.85269
 DIPOLE           X         Y         Z       TOTAL
 POINT-CHG.    -0.115    -0.107     1.197     1.207
 HYBRID         0.035    -0.038     0.021     0.056
 SUM           -0.080    -0.146     1.218     1.230


          ATOMIC ORBITAL ELECTRON POPULATIONS

     Atom    s        px        py        pz   
    1  C   1.06477   0.97789   0.95995   0.96998
    2  C   1.05541   0.95290   0.99013   1.07231
    3  C   1.07823   0.96852   0.89138   0.91659
    4  C   1.07844   0.88958   0.97063   0.91788
    5  C   1.05565   0.97196   0.96923   1.07039
    6  C   1.06508   0.96898   0.96812   0.97242
    7  C   1.09327   1.09964   0.95422   0.92992
    8  C   1.04128   0.97126   0.95787   1.03537
    9  C   1.07772   0.96226   0.97295   0.92766
   10  C   1.08149   1.09029   0.97442   1.04780
   11  C   1.08186   1.00624   1.05863   1.04998
   12  C   1.07550   0.97119   0.96383   0.92859
   13  C   1.03963   0.98046   0.94953   1.03599
   14  C   1.09309   0.99514   1.05993   0.92832
   15  N   1.73713   1.13549   1.33441   1.12924
   16  C   1.06297   0.88095   0.97473   1.00067
   17  C   1.06247   0.96894   0.89105   1.00371
   18  N   1.73724   1.14351   1.32557   1.12679
   19  C   1.08781   0.98283   1.06715   0.97308
   20  C   1.06310   0.96619   0.88951   1.00125
   21  C   1.06300   0.88397   0.97672   1.00364
   22  C   1.08842   0.98310   1.06666   0.96678
   23  N   1.73777   1.13707   1.33107   1.12840
   24  C   1.07895   0.88795   0.96802   0.91638
   25  C   1.07924   0.96776   0.89408   0.91751
   26  N   1.73640   1.13088   1.34039   1.12835
   27  C   1.05622   0.96920   0.96980   1.07118
   28  C   1.06501   0.96875   0.96866   0.97153
   29  C   1.06424   0.97854   0.96127   0.97082
   30  C   1.05482   0.95253   0.99099   1.07049
   31  C   1.08153   1.00873   1.05602   1.05037
   32  C   1.07577   0.97167   0.96377   0.92849
   33  C   1.04016   0.98115   0.94875   1.03605
   34  C   1.09312   0.99892   1.05526   0.92810
   35  C   1.09275   1.09786   0.95436   0.93163
   36  C   1.04055   0.97336   0.95437   1.03582
   37  C   1.07586   0.96391   0.97225   0.92872
   38  C   1.08240   1.08816   0.97619   1.04824
   39  C   1.08267   1.02535   0.97787   1.04160
   40  C   1.08258   1.01692   0.98713   1.04255
   41  C   1.09376   0.99439   0.96786   0.98446
   42  C   1.03284   1.15080   1.03946   1.18160
   43  C   1.09410   0.99050   0.97179   0.98421
   44  C   1.03350   1.14444   1.04501   1.18171
   45  C   1.08264   1.01447   0.99102   1.04134
   46  C   1.09352   0.98713   0.97300   0.98622
   47  C   1.03284   1.13757   1.05404   1.18020
   48  C   1.08244   1.02410   0.97921   1.04255
   49  C   1.09359   0.99320   0.96848   0.98379
   50  C   1.03286   1.14867   1.04270   1.18067
   51  C   1.05219   1.09901   1.11926   1.16888
   52  C   1.05583   1.05818   0.99398   1.14287
   53  C   1.06032   1.06440   0.99719   1.15028
   54  C   1.06072   1.06662   0.99772   1.14895
   55  C   1.05984   1.05994   0.99949   1.15278
   56  C   1.06137   1.06113   0.99847   1.15138
   57  C   1.06064   1.05033   1.00710   1.15356
   58  C   1.06162   1.05271   1.00829   1.15373
   59  C   1.05977   1.04937   1.01010   1.14959
   60  C   1.06200   1.05121   1.00840   1.15175
   61  C   1.06048   1.14280   1.02582   1.02959
   62  C   1.05875   1.12045   1.05747   1.05867
   63  C   1.05208   1.09417   1.15618   1.13714
   64  C   1.05436   0.99251   1.13842   1.06563
   65  C   1.06046   0.99694   1.14073   1.07389
   66  C   1.06083   1.00048   1.14054   1.07327
   67  C   1.05944   1.00586   1.13047   1.07643
   68  C   1.06037   1.00801   1.12943   1.07519
   69  C   1.05922   1.01699   1.11837   1.07830
   70  C   1.06076   1.01368   1.11732   1.08219
   71  C   1.05932   1.01746   1.11611   1.07715
   72  C   1.06026   1.00630   1.11675   1.09185
   73  C   1.05949   0.99895   1.14636   1.05986
   74  C   1.05792   0.99225   1.14985   1.09380
   75  C   1.05185   1.15865   1.06152   1.16770
   76  C   1.05531   1.02843   1.02722   1.14024
   77  C   1.06001   1.03003   1.03675   1.14565
   78  C   1.05974   1.03283   1.04005   1.14205
   79  C   1.05952   1.03323   1.03743   1.14247
   80  C   1.05961   1.03824   1.03750   1.13802
   81  C   1.05952   1.03654   1.04116   1.13466
   82  C   1.06002   1.03733   1.04228   1.13465
   83  C   1.05999   1.02817   1.06528   1.11747
   84  C   1.06014   1.01759   1.06917   1.12781
   85  C   1.05982   1.00394   1.14200   1.06172
   86  C   1.05789   0.99532   1.14549   1.09363
   87  C   1.05216   1.17004   1.07726   1.14034
   88  C   1.05550   1.11912   0.98675   1.08957
   89  C   1.06012   1.12531   0.99369   1.09315
   90  C   1.06012   1.11975   0.99848   1.09610
   91  C   1.05996   1.12208   1.00094   1.08931
   92  C   1.06032   1.11384   1.00509   1.09298
   93  C   1.05984   1.11582   1.01196   1.08518
   94  C   1.06044   1.10772   1.01636   1.08960
   95  C   1.05979   1.10802   1.02413   1.07792
   96  C   1.06120   1.10463   1.02647   1.08271
   97  C   1.05970   1.11666   1.03207   1.05377
   98  C   1.05787   1.12044   1.03372   1.08194
   99  H   0.80958
  100  H   0.83872
  101  H   0.83922
  102  H   0.80865
  103  H   0.79903
  104  H   0.79789
  105  H   0.83968
  106  H   0.80846
  107  H   0.81151
  108  H   0.83883
  109  H   0.82975
  110  H   0.82991
  111  H   0.83230
  112  H   0.83034
  113  H   0.83187
  114  H   0.82954
  115  H   0.83151
  116  H   0.83164
  117  H   0.83044
  118  H   0.83118
  119  H   0.82995
  120  H   0.83094
  121  H   0.85994
  122  H   0.85769
  123  H   0.85771
  124  H   0.86684
  125  H   0.86661
  126  H   0.86362
  127  H   0.86331
  128  H   0.86412
  129  H   0.86417
  130  H   0.86349
  131  H   0.86321
  132  H   0.86418
  133  H   0.86428
  134  H   0.86389
  135  H   0.86339
  136  H   0.86430
  137  H   0.86349
  138  H   0.86497
  139  H   0.86313
  140  H   0.86067
  141  H   0.86387
  142  H   0.85312
  143  H   0.86138
  144  H   0.85002
  145  H   0.84096
  146  H   0.86013
  147  H   0.85768
  148  H   0.85762
  149  H   0.86616
  150  H   0.86644
  151  H   0.86380
  152  H   0.86295
  153  H   0.86360
  154  H   0.86445
  155  H   0.86399
  156  H   0.86249
  157  H   0.86323
  158  H   0.86470
  159  H   0.86379
  160  H   0.86270
  161  H   0.86450
  162  H   0.86430
  163  H   0.86295
  164  H   0.86244
  165  H   0.86503
  166  H   0.86282
  167  H   0.84758
  168  H   0.85861
  169  H   0.85335
  170  H   0.84173
  171  H   0.85974
  172  H   0.85783
  173  H   0.85763
  174  H   0.86617
  175  H   0.86655
  176  H   0.86398
  177  H   0.86321
  178  H   0.86309
  179  H   0.86380
  180  H   0.86449
  181  H   0.86299
  182  H   0.86321
  183  H   0.86371
  184  H   0.86467
  185  H   0.86299
  186  H   0.86411
  187  H   0.86342
  188  H   0.86315
  189  H   0.86248
  190  H   0.86486
  191  H   0.86216
  192  H   0.84626
  193  H   0.85872
  194  H   0.85352
  195  H   0.84168
  196  H   0.86006
  197  H   0.85759
  198  H   0.85774
  199  H   0.86648
  200  H   0.86646
  201  H   0.86355
  202  H   0.86350
  203  H   0.86372
  204  H   0.86379
  205  H   0.86335
  206  H   0.86358
  207  H   0.86386
  208  H   0.86393
  209  H   0.86305
  210  H   0.86330
  211  H   0.86414
  212  H   0.86504
  213  H   0.86177
  214  H   0.86316
  215  H   0.86369
  216  H   0.86443
  217  H   0.85642
  218  H   0.85205
  219  H   0.84226
  220  H   0.85269

 **********************
 *                    *
 * JOB ENDED NORMALLY *
 *                    *
 **********************



 TOTAL JOB TIME:            32.54 SECONDS

 == MOPAC DONE ==
