212
Energy:     897.9500065
C       0.323210    0.507350    1.333620
C       0.197340   -0.672960    0.553190
C      -1.085900   -1.230510    0.346570
C      -2.243320   -0.678400    0.938800
C      -2.122200    0.503300    1.720030
C      -0.841920    1.084050    1.884980
C       1.304690   -1.378520    0.031760
C       1.136570   -2.572310   -0.683090
C      -0.158540   -3.077610   -0.967800
C      -1.205200   -2.405000   -0.417950
C      -3.455720   -1.390420    0.782680
C      -3.512360   -2.589760    0.053750
C      -2.365180   -3.094000   -0.614180
C       1.568800    1.105020    1.656830
C       1.647710    2.223240    2.505180
C       0.471910    2.816750    3.021910
C      -0.712230    2.219540    2.694830
C      -1.737310    2.790960    3.377620
C      -3.020390    2.214840    3.245100
C      -3.209650    1.102180    2.407660
H      -4.372900   -1.070090    1.249780
H      -4.463460   -3.064800    0.102580
H       2.320760   -1.058210    0.194520
H       2.057700   -3.048850   -0.927510
H       2.506880    0.703000    1.310730
H       2.643290    2.512570    2.755020
H      -3.890030    2.528240    3.776250
H      -4.210430    0.705280    2.358420
C      -0.658080   -4.188460   -1.610020
C      -2.070210   -4.206450   -1.371020
C       0.034020   -5.276540   -2.267240
C      -0.784450   -6.408880   -2.642930
C      -2.203660   -6.439600   -2.388570
C      -2.894540   -5.337710   -1.754150
C       0.199140    3.824460    3.913770
C      -1.202590    3.770910    4.157380
C       1.078780    4.681450    4.682740
C       0.447560    5.419280    5.762640
C      -0.955990    5.299400    6.030210
C      -1.813440    4.505320    5.213610
C      -0.464440   -7.483790   -3.441000
C      -2.731080   -7.543210   -3.027230
C      -1.648720   -8.256240   -3.622930
C       0.936290    6.427500    6.565920
C      -1.314470    6.169170    7.018850
C      -0.136870    6.866190    7.407280
C      -1.743350   -9.401810   -4.314610
C      -4.095860   -8.064720   -3.362900
C      -4.246610   -9.231860   -4.016890
C      -3.085440  -10.068310   -4.505210
C       0.717400   -7.933180   -4.246040
C       0.690330   -9.096350   -4.921910
C      -0.520860   -9.999500   -4.972500
C      -0.072470    7.824750    8.337930
C       2.203250    7.219960    6.676380
C       2.334510    8.172780    7.619230
C       1.232390    8.545750    8.591330
C      -1.319580    8.229440    9.096830
C      -2.585440    7.547460    8.610040
C      -2.596870    6.612310    7.641840
H       3.039870    7.128190    6.011070
H       3.265560    8.729910    7.673510
H      -3.567020    6.258210    7.353450
H       1.612920   -7.363460   -4.384920
H       1.566550   -9.393780   -5.491320
H      -5.013040   -7.549830   -3.166920
H      -5.249880   -9.583210   -4.240730
C      -3.137150    4.405630    5.461760
C       2.424260    4.769360    4.422490
C      -4.253310   -5.359600   -1.543150
C       1.384040   -5.227630   -2.534860
C      -4.114920    4.774360    4.420310
C      -3.625040    3.970740    6.784840
C      -4.944020    3.839200    7.054030
C      -5.972310    4.275990    6.006000
C      -5.441740    4.780840    4.665500
H      -2.864290    3.679690    7.497710
H      -3.727330    5.138320    3.473740
C       2.945130    4.785800    3.034960
C       3.422620    4.893840    5.506900
C       4.752650    5.019100    5.291670
C       5.277720    5.069810    3.860310
C       4.254070    4.946790    2.740140
H       3.038270    4.815950    6.512430
H      -3.529020    7.853330    9.052740
C      -4.965680   -6.577880   -1.079110
C      -5.086240   -4.163510   -1.802480
C      -6.434820   -4.152160   -1.685740
C      -6.307800   -6.631050   -0.911520
C      -7.160350   -5.415220   -1.235860
H      -4.362530   -7.439240   -0.813670
H      -4.565300   -3.292650   -2.171960
C       2.279730   -6.403380   -2.400810
C       2.011310   -3.972160   -3.012640
C       3.322920   -3.854830   -3.317620
C       4.235600   -5.067120   -3.174540
C       3.604140   -6.360980   -2.679550
H       2.225070    4.746540    2.225680
H       1.344300   -3.136320   -3.158150
H       1.851790   -7.318900   -2.007420
C      -6.409020    5.340760    3.594640
C      -5.449250    3.239640    8.397080
C      -7.891190    5.263860    4.036640
C      -4.304440    2.780460    9.337170
H      -3.682840    1.996960    8.849430
H      -4.712680    2.339080   10.272380
H      -3.656330    3.634450    9.628390
C      -6.316590    1.992410    8.106340
H      -5.731510    1.234660    7.540040
H      -7.224880    2.243850    7.522210
H      -6.668370    1.523610    9.050690
C      -6.293290    4.278830    9.157530
H      -5.683730    5.180720    9.380280
H      -6.659090    3.855970   10.118720
H      -7.185690    4.585160    8.574650
H      -8.202670    4.212730    4.211110
H      -8.556180    5.686110    3.252020
H      -8.070330    5.852550    4.961410
C      -6.267380    4.559020    2.272520
H      -6.509870    3.486740    2.428890
H      -5.239710    4.630070    1.860490
H      -6.958070    4.969120    1.503480
C      -6.076840    6.833120    3.354720
H      -6.181800    7.408910    4.301080
H      -6.762450    7.278770    2.602120
H      -5.039910    6.972960    2.984440
C       5.772560    5.109990    6.465760
C       4.702340    5.040660    1.258920
C       5.120080    4.991550    7.867950
H       4.394090    5.813160    8.045470
H       5.888490    5.056130    8.668910
H       4.604320    4.013430    7.984250
C       6.809200    3.971150    6.350630
H       6.303850    2.981540    6.374890
H       7.535680    4.012700    7.191230
H       7.402060    4.045160    5.416360
C       6.503580    6.467620    6.412810
H       5.773930    7.302250    6.496060
H       7.077150    6.590950    5.471870
H       7.230350    6.556430    7.249500
C       4.284930    3.768670    0.489440
H       4.745920    2.867910    0.948430
H       4.611700    3.827820   -0.571570
H       3.184160    3.635300    0.481670
C       6.237450    5.191560    1.112140
H       6.768790    4.315450    1.540570
H       6.604940    6.114980    1.607260
H       6.523960    5.261040    0.040120
C       4.048740    6.278750    0.605410
H       2.940890    6.218330    0.621590
H       4.361640    6.377110   -0.456620
H       4.351960    7.203340    1.143730
C       3.933950   -2.511900   -3.816940
C       4.487090   -7.620630   -2.468300
C      -6.977230   -7.914940   -0.351480
C      -7.282970   -2.887630   -2.010660
C       5.035260   -2.049780   -2.838440
H       4.613870   -1.911510   -1.818780
H       5.475120   -1.083170   -3.167190
H       5.869780   -2.777760   -2.781410
C       2.902470   -1.357690   -3.919420
H       2.449760   -1.137060   -2.928650
H       2.097410   -1.603950   -4.645130
H       3.388400   -0.422420   -4.273030
C       4.548030   -2.704010   -5.219170
H       5.371820   -3.446230   -5.210350
H       4.978930   -1.750060   -5.593760
H       3.771190   -3.042340   -5.938440
C       3.933110   -8.816210   -3.273330
H       2.914940   -9.098300   -2.938460
H       4.574060   -9.714170   -3.135950
H       3.900170   -8.574740   -4.357360
C       4.511800   -7.980260   -0.968220
H       3.494570   -8.201440   -0.583750
H       4.931470   -7.136670   -0.377980
H       5.143670   -8.877250   -0.788190
C       5.952090   -7.402000   -2.926070
H       5.999260   -7.169140   -4.011560
H       6.557000   -8.320170   -2.760840
H       6.441730   -6.583030   -2.359300
C      -8.155820   -2.511290   -0.793130
H      -8.882070   -3.312330   -0.544250
H      -8.755090   -1.599110   -1.004120
H      -7.519910   -2.315570    0.097040
C      -6.429860   -1.641560   -2.361590
H      -5.763650   -1.368870   -1.514600
H      -7.079910   -0.763740   -2.568540
H      -5.817100   -1.813260   -3.272230
C      -8.198590   -3.176690   -3.218730
H      -8.907070   -4.004480   -3.013640
H      -7.588370   -3.446860   -4.107970
H      -8.807930   -2.282760   -3.474400
C      -6.511040   -8.124380    1.104240
H      -5.409780   -8.246720    1.166800
H      -6.980980   -9.030520    1.544610
H      -6.798890   -7.249190    1.727620
C      -6.600540   -9.151430   -1.196280
H      -5.508330   -9.341770   -1.184340
H      -6.929300   -9.019730   -2.248780
H      -7.088310  -10.064900   -0.790860
C      -8.525390   -7.822760   -0.342870
H      -8.886980   -6.984580    0.288150
H      -8.972880   -8.753650    0.068740
H      -8.920050   -7.694520   -1.373760
H      -1.308934    8.945084    9.917599
H       1.367857    9.265800    9.396996
H      -3.205033  -11.054776   -4.950747
H      -0.513326  -10.984252   -5.437395
H       5.295861   -5.010128   -3.416448
H      -8.245573   -5.445153   -1.150332
H       6.339325    5.188908    3.648814
H      -7.041174    4.228390    6.208942
