126
Atoms. Timestep: 0
C 18.3754 18.4745 10.525
C 18.3754 21.318 10.525
C 19.6299 20.5927 10.485
C 19.6299 19.1999 10.58
C 17.1717 19.175 10.45
C 17.1717 20.6175 10.595
C 13.5764 19.8963 10.505
C 14.9755 19.8963 10.515
C 20.7827 24.0579 10.13
C 22.1935 23.9709 9.95
H 22.7446 24.8952 9.815
C 22.8383 22.7439 9.915
C 22.0763 21.5377 10.085
H 22.5843 20.5927 9.975
C 20.7163 21.5833 10.325
C 20.7163 18.2093 10.745
C 22.0724 18.2548 11
H 22.5804 19.1999 11.11
C 22.8305 17.0486 11.175
C 22.1896 15.8217 11.13
H 22.7406 14.8973 11.27
C 20.7788 15.7347 10.945
C 19.9972 14.5492 11
H 20.5092 13.6041 11.135
C 18.6099 14.5989 10.92
C 17.9573 15.8631 10.76
H 16.8787 15.888 10.77
C 18.6841 17.0321 10.635
C 15.7649 18.7398 10.305
C 15.1083 17.5751 9.96
H 15.6633 16.6839 9.7
C 13.6741 17.5253 9.895
C 12.9355 18.6652 10.19
H 11.853 18.6445 10.17
C 12.9316 21.1274 10.82
H 11.8491 21.1481 10.83
C 13.6702 22.2673 11.12
C 15.1005 22.2175 11.07
H 15.6555 23.1087 11.33
C 15.761 21.0528 10.73
C 18.6841 22.7605 10.42
C 17.9573 23.9294 10.29
H 16.8787 23.9046 10.27
C 18.6138 25.1937 10.14
C 20.0011 25.2434 10.07
H 20.517 26.1885 9.935
C 20.0949 22.8559 10.33
C 20.0949 16.9367 10.74
C 24.3547 22.6113 9.69
C 25.0425 23.9792 9.495
H 24.9213 24.6217 10.375
H 24.6517 24.5056 8.62
H 26.1172 23.83 9.34
C 24.9956 21.9315 10.925
H 24.8275 22.5284 11.83
H 26.0742 21.8154 10.785
H 24.5774 20.9367 11.105
C 24.6243 21.7574 8.43
H 24.2101 20.7502 8.515
H 25.7029 21.6579 8.265
H 24.1827 22.2258 7.545
C 24.3508 17.1813 11.41
C 24.6087 18.0352 12.675
H 24.1593 17.5668 13.555
H 24.1944 19.0424 12.585
H 25.6873 18.1346 12.845
C 24.9995 17.8611 10.18
H 24.8393 17.2642 9.275
H 26.0781 17.9771 10.33
H 24.5852 18.8559 10
C 25.0346 15.8134 11.61
H 24.636 15.287 12.485
H 26.1054 15.9626 11.775
H 24.9213 15.1668 10.735
C 17.7306 13.3388 11.01
C 18.5552 12.0497 11.17
H 19.1531 12.058 12.09
H 19.2313 11.8922 10.325
H 17.883 11.1875 11.225
C 16.8904 13.2062 9.715
H 16.2495 14.0766 9.55
H 16.2416 12.3233 9.775
H 17.5391 13.0984 8.84
C 16.7888 13.4549 12.235
H 16.14 14.3336 12.175
H 17.3671 13.5336 13.16
H 16.144 12.572 12.305
C 13.0097 16.1865 9.525
C 13.5529 15.6932 8.16
H 13.0801 14.744 7.89
H 14.6355 15.5274 8.18
H 13.338 16.4227 7.37
C 13.338 15.1378 10.615
H 12.9472 15.4569 11.59
H 14.4127 14.9844 10.72
H 12.8886 14.172 10.365
C 11.4778 16.2942 9.41
H 11.0206 16.5885 10.36
H 11.0596 15.3243 9.135
H 11.1808 17.0196 8.645
C 13.0019 23.6061 11.485
C 11.47 23.4983 11.585
H 11.0206 23.1999 10.63
H 11.0479 24.4683 11.86
H 11.1652 22.773 12.35
C 13.5334 24.0994 12.855
H 14.6159 24.2652 12.845
H 13.3146 23.3698 13.64
H 13.0605 25.0486 13.125
C 13.338 24.6548 10.4
H 14.4166 24.8082 10.3
H 12.8847 25.6206 10.645
H 12.955 24.3356 9.42
C 17.7345 26.4538 10.04
C 18.563 27.7429 9.885
H 19.2313 27.9004 10.735
H 17.8908 28.6051 9.825
H 19.1648 27.7346 8.97
C 16.8005 26.3377 8.805
H 16.1518 25.459 8.86
H 17.3906 26.259 7.885
H 16.1596 27.2206 8.735
C 16.8826 26.5864 11.325
H 17.5274 26.6942 12.205
H 16.2416 25.7159 11.485
H 16.2338 27.4693 11.265
126
Atoms. Timestep: 10000
C 19.916 16.8797 10.661
C 20.0743 19.7123 10.8612
C 21.279 18.9307 10.6638
C 21.2091 17.5358 10.6602
C 18.7505 17.6431 10.738
C 18.8426 19.0688 10.9837
C 15.2177 18.5356 11.1487
C 16.6108 18.4654 11.0399
C 22.5901 22.3509 10.457
C 23.9745 22.208 10.1522
H 24.5632 23.1111 10.0364
C 24.5453 20.9562 9.97626
C 23.7337 19.7801 10.125
H 24.177 18.8249 9.90396
C 22.4018 19.8752 10.4824
C 22.248 16.4832 10.6622
C 23.6213 16.4423 10.8037
H 24.1877 17.3472 10.9386
C 24.3228 15.1905 10.8284
C 23.6127 14.0032 10.7517
H 24.1208 13.0451 10.779
C 22.1891 14.0006 10.6815
C 21.3501 12.8545 10.7191
H 21.8179 11.8781 10.7433
C 19.9653 12.9789 10.7609
C 19.3733 14.2823 10.7463
H 18.305 14.3585 10.8514
C 20.152 15.4201 10.6426
C 17.315 17.2905 10.6829
C 16.5687 16.1884 10.3135
H 17.0483 15.2952 9.94363
C 15.1335 16.2148 10.3672
C 14.4856 17.3651 10.8035
H 13.4059 17.3998 10.8741
C 14.6698 19.7699 11.6032
H 13.5948 19.8434 11.7064
C 15.4929 20.8465 11.9189
C 16.9093 20.7297 11.7443
H 17.5303 21.5681 12.0203
C 17.4743 19.5618 11.2681
C 20.4533 21.1409 10.8321
C 19.7841 22.3513 10.8469
H 18.7104 22.3826 10.9146
C 20.4956 23.589 10.7311
C 21.8737 23.5749 10.5472
H 22.4287 24.5003 10.4357
C 21.8549 21.1728 10.6296
C 21.5587 15.2472 10.6204
C 26.0286 20.7659 9.61457
C 26.7734 22.1086 9.45861
H 26.7601 22.6891 10.3892
H 26.3427 22.7182 8.65868
H 27.8226 21.9185 9.20266
C 26.7287 19.9647 10.7397
H 26.6681 20.5001 11.6959
H 27.7849 19.8059 10.5008
H 26.2717 18.9808 10.8842
C 26.1473 19.9963 8.27929
H 25.6858 19.0068 8.32782
H 27.2022 19.8559 8.01647
H 25.6618 20.5512 7.46966
C 25.8619 15.2293 10.9422
C 26.2687 15.9724 12.2376
H 25.8666 15.4621 13.118
H 25.9053 17.0034 12.2545
H 27.3619 16.0054 12.3222
C 26.4456 15.9662 9.71248
H 26.1795 15.4471 8.78407
H 27.5382 16.0171 9.77803
H 26.0741 16.9915 9.63861
C 26.4827 13.8182 10.9866
H 26.1275 13.2479 11.8535
H 27.5706 13.9011 11.0702
H 26.2629 13.2449 10.0805
C 19.0276 11.7608 10.8363
C 19.7894 10.4239 10.8346
H 20.4597 10.3336 11.6992
H 20.3852 10.2965 9.92566
H 19.0768 9.5939 10.8856
C 18.0791 11.7671 9.61128
H 17.476 12.6785 9.56278
H 17.3889 10.9151 9.66369
H 18.648 11.693 8.67837
C 18.1962 11.8314 12.1419
H 17.5942 12.7436 12.1995
H 18.8514 11.812 13.0183
H 17.5106 10.9785 12.2043
C 14.3677 14.9422 9.96171
C 14.7701 14.526 8.52424
H 14.2247 13.6237 8.22886
H 15.8402 14.3054 8.4402
H 14.5327 15.3226 7.80826
C 14.7244 13.7999 10.9433
H 14.4322 14.0643 11.9685
H 15.7944 13.5858 10.9457
H 14.2029 12.8784 10.665
C 12.8399 15.134 9.98506
H 12.478 15.3788 10.9894
H 12.347 14.2088 9.6788
H 12.5225 15.9288 9.3006
C 14.9318 22.1856 12.4327
C 13.4094 22.1469 12.6546
H 12.8678 21.9434 11.7221
H 13.0653 23.1138 13.0322
H 13.1276 21.3821 13.3901
C 15.5992 22.5481 13.7838
H 16.6853 22.6605 13.6939
H 15.4044 21.7733 14.5318
H 15.2033 23.4973 14.1595
C 15.2366 23.2946 11.3996
H 16.3108 23.4014 11.2193
H 14.859 24.2612 11.7496
H 14.7581 23.0689 10.4352
C 19.6828 24.8951 10.795
C 20.5664 26.1495 10.6614
H 21.3095 26.2098 11.4611
H 19.9405 27.0466 10.7195
H 21.0909 26.1799 9.69975
C 18.6468 24.9182 9.6388
H 17.9562 24.0708 9.6865
H 19.1552 24.8793 8.66819
H 18.0519 25.8351 9.68563
C 18.9466 24.9734 12.1538
H 19.6659 24.9829 12.9818
H 18.2729 24.126 12.3063
H 18.3449 25.8898 12.2116
126
Atoms. Timestep: 20000
C 19.2643 10.5941 10.4617
C 19.7303 13.2447 11.3812
C 20.8201 12.4681 10.8243
C 20.6092 11.1361 10.4611
C 18.198 11.3837 10.8935
C 18.4608 12.6771 11.4931
C 14.8412 12.3653 11.9958
C 16.1994 12.2338 11.6864
C 22.4405 15.7164 11.356
C 23.7609 15.5697 10.8415
H 24.4216 16.4279 10.8909
C 24.1787 14.3791 10.2656
C 23.2735 13.2651 10.2053
H 23.5904 12.38 9.68197
C 22.0059 13.3479 10.7504
C 21.5297 10.0559 10.0451
C 22.8989 9.88496 9.98527
H 23.5656 10.6773 10.2776
C 23.4682 8.63026 9.58342
C 22.6373 7.56075 9.29124
H 23.0454 6.60006 8.9956
C 21.2218 7.67381 9.41448
C 20.2802 6.62101 9.25962
H 20.6464 5.64637 8.96157
C 18.9284 6.82236 9.51819
C 18.4737 8.11631 9.92857
H 17.4368 8.23264 10.1924
C 19.3475 9.18341 10.0262
C 16.7369 11.1578 10.9401
C 15.8463 10.2528 10.3959
H 16.1889 9.46569 9.74193
C 14.436 10.3604 10.6466
C 13.9605 11.3872 11.4546
H 12.9043 11.474 11.676
C 14.4751 13.4609 12.8299
H 13.4311 13.5756 13.0921
C 15.433 14.3508 13.306
C 16.8022 14.1912 12.9183
H 17.5317 14.8773 13.3204
C 17.1895 13.1641 12.0787
C 20.2467 14.5972 11.6806
C 19.7095 15.799 12.1048
H 18.6586 15.883 12.3218
C 20.5256 16.9698 12.2263
C 21.8663 16.9138 11.8621
H 22.4965 17.7944 11.9261
C 21.6132 14.5887 11.3077
C 20.7183 8.92865 9.77059
C 25.5858 14.196 9.67091
C 26.4412 15.4762 9.77739
H 26.5899 15.7776 10.8215
H 25.9886 16.31 9.23253
H 27.4308 15.2934 9.34192
C 26.3213 13.0707 10.4395
H 26.4216 13.3249 11.5024
H 27.323 12.9127 10.0276
H 25.7858 12.1181 10.3784
C 25.4772 13.8174 8.17617
H 24.926 12.8863 8.02254
H 26.4768 13.6838 7.74662
H 24.9639 14.6051 7.61493
C 25.0064 8.53223 9.49594
C 25.6275 8.86077 10.8751
H 25.2757 8.15631 11.6348
H 25.3746 9.86944 11.2128
H 26.721 8.79526 10.818
C 25.5221 9.53785 8.43832
H 25.1035 9.3136 7.45007
H 26.6147 9.49489 8.36786
H 25.2506 10.5666 8.68892
C 25.482 7.12476 9.08168
H 25.169 6.36325 9.80628
H 26.5752 7.1078 9.03755
H 25.1062 6.83918 8.09412
C 17.8861 5.69675 9.39362
C 18.5034 4.36374 8.93605
H 19.2528 3.99386 9.64793
H 18.9789 4.45148 7.95445
H 17.7203 3.60184 8.86073
C 16.8133 6.1041 8.35266
H 16.3041 7.03223 8.62842
H 16.0503 5.31927 8.26985
H 17.265 6.25138 7.3659
C 17.2159 5.46135 10.7707
H 16.7196 6.36094 11.1478
H 17.9588 5.15725 11.5145
H 16.4584 4.67252 10.6965
C 13.5049 9.30328 10.0253
C 13.7013 9.27263 8.48846
H 13.0378 8.52552 8.04079
H 14.7275 9.01188 8.2063
H 13.4681 10.2497 8.04736
C 13.8504 7.91361 10.6126
H 13.7019 7.90472 11.7008
H 14.8867 7.63529 10.4147
H 13.2105 7.1417 10.1729
C 12.0165 9.58406 10.3033
H 11.7947 9.56684 11.3757
H 11.4014 8.81442 9.83212
H 11.7074 10.5561 9.90257
C 15.0711 15.5316 14.2262
C 13.5866 15.5362 14.6321
H 12.9272 15.6343 13.7604
H 13.3862 16.3828 15.2947
H 13.3118 14.6193 15.1699
C 15.9173 15.4622 15.5229
H 16.9925 15.5214 15.3211
H 15.7289 14.5265 16.0583
H 15.6637 16.2958 16.186
C 15.3705 16.8588 13.4922
H 16.4234 16.9383 13.2042
H 15.134 17.715 14.133
H 14.7677 16.9402 12.5757
C 19.8616 18.2597 12.7421
C 20.8476 19.4398 12.8279
H 21.677 19.2273 13.5078
H 20.3262 20.3264 13.2048
H 21.2628 19.6982 11.8472
C 18.7116 18.6701 11.7829
H 17.9483 17.891 11.6969
H 19.1028 18.8655 10.7776
H 18.2217 19.5766 12.1501
C 19.2922 18.0105 14.1592
H 20.096 17.7432 14.8559
H 18.557 17.2014 14.1708
H 18.7967 18.9141 14.5375
126
Atoms. Timestep: 30000
C 20.1016 6.01518 10.4592
C 21.1413 8.51607 11.3271
C 22.0422 7.47015 10.8849
C 21.5353 6.2128 10.5491
C 19.2354 7.06159 10.7783
C 19.7664 8.28094 11.3551
C 16.1557 8.88551 11.5753
C 17.4578 8.41184 11.3803
C 24.3722 10.2492 11.4399
C 25.6483 9.75946 11.0381
H 26.4952 10.4324 11.1126
C 25.7989 8.47518 10.5364
C 24.6534 7.61348 10.4395
H 24.7781 6.65232 9.97219
C 23.4105 8.02997 10.8781
C 22.1878 4.92128 10.2435
C 23.4733 4.41943 10.2994
H 24.2927 5.03953 10.6185
C 23.7423 3.04508 9.98523
C 22.6959 2.19651 9.66195
H 22.8742 1.15159 9.43119
C 21.3469 2.65681 9.66741
C 20.188 1.85838 9.4715
H 20.3225 0.810026 9.23543
C 18.9129 2.39561 9.61405
C 18.7637 3.78051 9.94461
H 17.7718 4.15899 10.1204
C 19.8646 4.60639 10.0776
C 17.7642 7.20072 10.7147
C 16.7182 6.51324 10.1302
H 16.901 5.63408 9.53164
C 15.3641 6.97345 10.2633
C 15.1011 8.12492 10.9969
H 14.0861 8.47735 11.1299
C 16.0137 10.0784 12.3415
H 15.0145 10.4569 12.5152
C 17.1257 10.7315 12.8639
C 18.4369 10.2239 12.5928
H 19.2831 10.7313 13.0299
C 18.6168 9.09194 11.8206
C 21.953 9.7156 11.6233
C 21.7005 11.0321 11.964
H 20.6902 11.3802 12.093
C 22.7695 11.9736 12.1128
C 24.0771 11.5745 11.8594
H 24.8989 12.2774 11.9453
C 23.2979 9.35583 11.3617
C 21.1447 4.01295 9.94125
C 27.1554 7.92501 10.0628
C 28.2904 8.96231 10.1962
H 28.4355 9.2713 11.2386
H 28.0966 9.85229 9.59016
H 29.2323 8.52217 9.84776
C 27.5352 6.69524 10.9238
H 27.6205 6.97134 11.9827
H 28.4932 6.2775 10.5991
H 26.7869 5.89986 10.8508
C 27.0616 7.50857 8.57715
H 26.3099 6.73298 8.4099
H 28.025 7.11395 8.23363
H 26.7989 8.36782 7.95146
C 25.2111 2.57129 10.0248
C 25.796 2.80869 11.438
H 25.2291 2.25073 12.1893
H 25.7767 3.86444 11.7216
H 26.8408 2.47617 11.4711
C 26.0315 3.36587 8.98006
H 25.6407 3.20014 7.96913
H 27.0819 3.05474 8.99899
H 26.0052 4.44113 9.17472
C 25.3527 1.07117 9.69568
H 24.8117 0.446706 10.417
H 26.4083 0.786412 9.74004
H 24.9881 0.835645 8.69086
C 17.6366 1.55267 9.44259
C 17.9366 0.0879572 9.07932
H 18.52 41.0342 9.86065
H 18.4865 0.00715106 8.13674
H 16.9971 40.9873 8.966
C 16.7729 2.15524 8.30623
H 16.4903 3.19222 8.51011
H 15.8476 1.57657 8.18779
H 17.3147 2.13763 7.35466
C 16.8344 1.55803 10.7682
H 16.5502 2.56937 11.075
H 17.4255 1.12061 11.5788
H 15.913 0.974548 10.659
C 14.2469 6.14446 9.60368
C 14.5366 5.98859 8.08937
H 13.7423 5.40361 7.6142
H 15.484 5.47185 7.89926
H 14.583 6.96927 7.5997
C 14.1971 4.74432 10.2614
H 13.9753 4.82735 11.3338
H 15.144 4.21241 10.1564
H 13.419 4.12997 9.79686
C 12.8579 6.79288 9.75204
H 12.5643 6.88486 10.8032
H 12.1065 6.17309 9.25807
H 12.8269 7.78915 9.29661
C 17.0027 12.0102 13.7135
C 15.5405 12.3967 13.9985
H 14.9883 12.6077 13.074
H 15.5093 13.2992 14.6153
H 15.0112 11.6029 14.5419
C 17.7129 11.8032 15.0756
H 18.7809 11.5885 14.959
H 17.2626 10.97 15.624
H 17.627 12.7061 15.6889
C 17.6707 13.1854 12.9635
H 18.7281 12.9915 12.7586
H 17.6084 14.1049 13.5552
H 17.1722 13.3642 11.9994
C 22.4097 13.4109 12.5316
C 23.6477 14.3183 12.6582
H 24.3495 13.9453 13.409
H 23.336 15.3232 12.9632
H 24.1813 14.4175 11.7062
C 21.4663 14.0394 11.4705
H 20.5424 13.4662 11.3486
H 21.963 14.0822 10.494
H 21.1907 15.0554 11.7676
C 21.6987 13.3805 13.9057
H 22.3611 12.9614 14.673
H 20.7878 12.7763 13.8844
H 21.4161 14.3955 14.2137
126
Atoms. Timestep: 40000
C 18.7848 3.07069 10.9794
C 18.7342 5.75841 11.908
C 19.9468 5.21327 11.3305
C 19.9966 3.86691 10.9624
C 17.5908 3.6336 11.4316
C 17.6032 4.95155 12.0351
C 14.1241 3.93158 12.5889
C 15.4766 4.07108 12.2588
C 20.9041 8.71538 11.8581
C 22.2195 8.83315 11.3234
H 22.699 9.80453 11.3683
C 22.8544 7.74988 10.7343
C 22.1853 6.47968 10.6805
H 22.6621 5.67588 10.1472
C 20.9349 6.30959 11.2446
C 21.1051 2.99042 10.5264
C 22.4801 3.09262 10.4454
H 22.9822 3.99985 10.7327
C 23.2789 1.97582 10.0277
C 22.6703 0.764545 9.74124
H 23.2549 41.3545 9.43382
C 21.2623 0.596286 9.8859
C 20.544 40.8298 9.73847
H 21.0902 39.9472 9.42917
C 19.1832 40.7602 10.018
C 18.4892 0.487426 10.4429
H 17.454 0.396511 10.7226
C 19.1372 1.70538 10.5341
C 16.2037 3.12423 11.4982
C 15.5002 2.06334 10.9616
H 15.9808 1.36105 10.298
C 14.1005 1.89034 11.2337
C 13.4448 2.8009 12.0547
H 12.3958 2.67735 12.2921
C 13.5625 4.93114 13.4349
H 12.5206 4.83717 13.7131
C 14.3338 5.99077 13.9023
C 15.7014 6.10507 13.4936
H 16.2878 6.92011 13.8892
C 16.2702 5.17692 12.6422
C 18.9789 7.18512 12.2081
C 18.2223 8.25636 12.6474
H 17.179 8.13106 12.8802
C 18.7938 9.56451 12.764
C 20.1135 9.77478 12.3799
H 20.5589 10.762 12.44
C 20.3144 7.44708 11.8151
C 20.5272 1.72631 10.257
C 24.2606 7.84923 10.1179
C 24.8488 9.27252 10.2196
H 24.9515 9.59413 11.2632
H 24.2325 10.0025 9.68651
H 25.8481 9.28948 9.76857
C 25.2151 6.88843 10.8687
H 25.2799 7.15423 11.9317
H 26.2217 6.93211 10.4413
H 24.8766 5.84928 10.8098
C 24.2054 7.4613 8.62264
H 23.8459 6.4403 8.47147
H 25.2049 7.52847 8.17751
H 23.5384 8.13422 8.07381
C 24.8047 2.18287 9.91708
C 25.3704 2.62304 11.289
H 25.1759 1.86077 12.0494
H 24.9292 3.56113 11.6364
H 26.4544 2.77431 11.2155
C 25.0959 3.27357 8.85813
H 24.7143 2.9743 7.87479
H 26.1743 3.44681 8.77141
H 24.6311 4.22791 9.11893
C 25.5415 0.897854 9.48736
H 25.3959 0.087421 10.2118
H 26.6158 1.09662 9.42711
H 25.214 0.546902 8.5037
C 18.3811 39.4518 9.90194
C 19.2415 38.2678 9.42728
H 20.06 38.0506 10.1259
H 19.6751 38.4505 8.43935
H 18.6227 37.3669 9.35883
C 17.2331 39.6431 8.8793
H 16.5555 40.452 9.16812
H 16.6382 38.7237 8.80291
H 17.6314 39.8794 7.88688
C 17.7918 39.0848 11.2872
H 17.1342 39.8679 11.677
H 18.5916 38.9307 12.0183
H 17.2034 38.1625 11.2194
C 13.3861 0.672478 10.6197
C 13.5608 0.685813 9.07993
H 13.0504 41.2747 8.6375
H 14.6137 0.633098 8.78118
H 13.133 1.5992 8.64824
C 14.0075 40.8268 11.1934
H 13.8806 40.7856 12.2836
H 15.0751 40.7586 10.9786
H 13.5253 39.9454 10.7584
C 11.876 0.653828 10.9211
H 11.6787 0.589987 11.9965
H 11.4172 41.2302 10.4544
H 11.3755 1.54719 10.5309
C 13.7609 7.07433 14.8348
C 12.311 6.78532 15.2625
H 11.6317 6.75433 14.4012
H 11.9583 7.57381 15.9331
H 12.2305 5.83063 15.7987
C 14.6243 7.16898 16.1186
H 15.6636 7.43935 15.9014
H 14.6321 6.21283 16.651
H 14.2219 7.93431 16.7904
C 13.7817 8.43673 14.1046
H 14.7937 8.72293 13.8017
H 13.3913 9.22765 14.7539
H 13.1606 8.40066 13.1976
C 17.897 10.6968 13.2972
C 18.6327 12.0477 13.3758
H 19.4981 12.0006 14.0422
H 17.9529 12.8131 13.7656
H 18.9735 12.3858 12.3907
C 16.6739 10.8757 12.3576
H 16.0776 9.9618 12.278
H 17.0033 11.1474 11.3478
H 16.021 11.6669 12.7374
C 17.4099 10.3361 14.721
H 18.2613 10.2302 15.4042
H 16.8487 9.39805 14.7385
H 16.7522 11.1232 15.1121
126
Atoms. Timestep: 50000
C 18.9934 3.4672 10.9001
C 19.0885 6.30713 10.7793
C 20.3182 5.54225 10.8423
C 20.2662 4.15507 10.9962
C 17.8193 4.20102 10.7263
C 17.8594 5.64767 10.8098
C 14.2531 5.03489 10.544
C 15.6487 4.992 10.6344
C 21.6041 8.95062 10.4074
C 23.0189 8.81237 10.3126
H 23.607 9.7121 10.1704
C 23.6235 7.56526 10.3668
C 22.8133 6.39211 10.5437
H 23.2944 5.43059 10.5008
C 21.4438 6.49051 10.7031
C 21.3075 3.13979 11.2651
C 22.6484 3.15471 11.5955
H 23.1799 4.08481 11.6968
C 23.3548 1.93472 11.8648
C 22.6765 0.726986 11.8352
H 23.1874 41.244 12.0456
C 21.2763 0.675885 11.5733
C 20.4539 40.9693 11.6336
H 20.9257 40.0161 11.8377
C 19.0753 41.0584 11.4719
C 18.4753 0.883222 11.2212
H 17.4019 0.940876 11.1705
C 19.2472 2.02271 11.0887
C 16.4095 3.80386 10.5195
C 15.7346 2.64536 10.1869
H 16.2714 1.72901 9.99509
C 14.3056 2.63721 10.0418
C 13.5899 3.81174 10.2453
H 12.5104 3.82383 10.1641
C 13.633 6.29784 10.7689
H 12.5532 6.35233 10.7158
C 14.3915 7.42684 11.0623
C 15.8198 7.33066 11.0967
H 16.3866 8.21279 11.352
C 16.4591 6.1316 10.8448
C 19.4507 7.73271 10.6312
C 18.7713 8.91702 10.4101
H 17.6983 8.92556 10.3272
C 19.477 10.1524 10.2446
C 20.8675 10.156 10.2524
H 21.4213 11.0774 10.1073
C 20.8663 7.78039 10.6184
C 20.6455 1.88837 11.2785
C 25.1447 7.37615 10.2351
C 25.8878 8.712 10.0221
H 25.7391 9.39665 10.866
H 25.5644 9.21137 9.10396
H 26.9644 8.52304 9.93549
C 25.6923 6.73218 11.5326
H 25.4938 7.3737 12.4007
H 26.7732 6.57654 11.4599
H 25.2317 5.75931 11.7305
C 25.4559 6.45942 9.0301
H 25.0041 5.46964 9.13367
H 26.5387 6.31918 8.9315
H 25.0803 6.90179 8.10155
C 24.8629 2.03025 12.1809
C 25.078 2.93088 13.4212
H 24.5643 2.51587 14.2936
H 24.7033 3.94608 13.2651
H 26.1485 3.00452 13.6488
C 25.6019 2.63451 10.9625
H 25.4728 2.00315 10.0755
H 26.6743 2.72377 11.1691
H 25.2319 3.63321 10.7167
C 25.4885 0.652139 12.4777
H 25.0239 0.177284 13.3504
H 26.5533 0.775104 12.6976
H 25.4029 -0.0291851 11.6254
C 18.1509 39.8313 11.5647
C 18.9216 38.5256 11.8263
H 19.4672 38.556 12.7785
H 19.6387 38.3098 11.0285
H 18.2188 37.6874 11.8792
C 17.3806 39.6675 10.2304
H 16.7791 40.5495 9.99176
H 16.7 38.8083 10.2903
H 18.0737 39.501 9.39894
C 17.1463 40.0306 12.7274
H 16.5313 40.9258 12.5932
H 17.6745 40.1323 13.6806
H 16.469 39.1717 12.7979
C 13.6185 1.30468 9.69142
C 14.2205 0.73489 8.38208
H 13.732 41.2398 8.12555
H 15.2945 0.536371 8.47102
H 14.0747 1.43532 7.55035
C 13.8499 41.7462 10.8419
H 13.4158 0.669639 11.7789
H 14.9118 41.5642 11.0151
H 13.383 40.784 10.6078
C 12.0999 1.45455 9.48411
H 11.5999 1.80469 10.3934
H 11.6652 0.486313 9.22676
H 11.8705 2.15453 8.67275
C 13.7489 8.80042 11.3311
C 12.211 8.74476 11.3474
H 11.8058 8.41839 10.3812
H 11.8064 9.739 11.5564
H 11.8395 8.06346 12.1241
C 14.2189 9.33717 12.7072
H 15.3056 9.46905 12.7526
H 13.932 8.64989 13.5091
H 13.7635 10.3121 12.9093
C 14.1801 9.78916 10.2237
H 15.2675 9.90464 10.1794
H 13.7461 10.779 10.401
H 13.8421 9.43888 9.23735
C 18.6476 11.4334 10.0408
C 19.526 12.6882 9.87914
H 20.1508 12.8626 10.7592
H 18.8873 13.5678 9.74403
H 20.1779 12.6208 9.0009
C 17.7809 11.2918 8.76034
H 17.1007 10.4366 8.81499
H 18.4189 11.1541 7.87944
H 17.1744 12.1906 8.61595
C 17.7299 11.6492 11.268
H 18.3278 11.7758 12.1787
H 17.0518 10.8066 11.4279
H 17.115 12.5486 11.1335
126
Atoms. Timestep: 60000
C 18.4703 6.47054 10.9065
C 20.1821 8.71444 10.5552
C 20.7385 7.37649 10.5926
C 19.9077 6.28588 10.8591
C 17.9294 7.74817 10.7575
C 18.8095 8.89951 10.7233
C 15.5127 10.5061 10.7588
C 16.6248 9.65701 10.7548
C 23.7101 9.37721 9.80094
C 24.7634 8.43525 9.619
H 25.7459 8.81732 9.36545
C 24.5341 7.07181 9.72946
C 23.217 6.59885 10.0547
H 23.0436 5.53692 10.0545
C 22.1839 7.48349 10.3008
C 20.1878 4.85999 11.1342
C 21.3139 4.09546 11.3682
H 22.2933 4.54099 11.3582
C 21.2047 2.69951 11.6833
C 19.9529 2.11649 11.7966
H 19.8458 1.06572 12.0441
C 18.765 2.88796 11.6378
C 17.4354 2.4323 11.8466
H 17.2846 1.38835 12.0921
C 16.3565 3.30723 11.7748
C 16.5858 4.68629 11.4664
H 15.7466 5.35977 11.4862
C 17.8568 5.15547 11.1907
C 16.5386 8.24603 10.6815
C 15.287 7.6938 10.4894
H 15.1695 6.63239 10.3338
C 14.1126 8.51973 10.4454
C 14.2366 9.89539 10.6047
H 13.3629 10.5348 10.5982
C 15.7673 11.898 10.9257
H 14.9209 12.5726 10.9438
C 17.0653 12.3765 11.0753
C 18.1672 11.4638 11.0176
H 19.1631 11.8534 11.1622
C 17.9624 10.1118 10.8174
C 21.2865 9.65482 10.2699
C 21.4018 11.0071 10.0037
H 20.5312 11.6398 9.99532
C 22.6717 11.5919 9.69216
C 23.7981 10.7817 9.60271
H 24.7652 11.2012 9.34696
C 22.4568 8.86504 10.1547
C 18.9283 4.23304 11.2926
C 25.64 6.02554 9.50747
C 26.9935 6.66885 9.13817
H 27.3572 7.33072 9.93361
H 26.9274 7.2413 8.20819
H 27.7449 5.8838 8.99197
C 25.8423 5.21363 10.8105
H 26.1433 5.87025 11.6369
H 26.618 4.45344 10.6752
H 24.9261 4.69905 11.1164
C 25.2359 5.07197 8.36
H 24.3073 4.53629 8.57277
H 26.0193 4.32257 8.1976
H 25.0936 5.62848 7.42787
C 22.5112 1.90219 11.885
C 23.3349 2.53567 13.0321
H 22.7687 2.52024 13.9683
H 23.605 3.5742 12.8226
H 24.2661 1.97446 13.178
C 23.3337 1.9311 10.5741
H 22.772 1.47393 9.7509
H 24.2732 1.38101 10.6977
H 23.5887 2.95145 10.2764
C 22.2478 0.425953 12.2456
H 21.6866 0.333259 13.1833
H 23.2022 41.3585 12.3803
H 21.6958 41.3542 11.4578
C 14.9072 2.85536 12.0285
C 14.7995 1.35212 12.3383
H 15.3558 1.08002 13.2447
H 15.1717 0.738887 11.5121
H 13.7507 1.08492 12.5062
C 14.0527 3.1418 10.7683
H 14.0537 4.20315 10.5032
H 13.0105 2.84476 10.9433
H 14.4307 2.58182 9.90639
C 14.3305 3.63186 13.2391
H 14.3391 4.71424 13.0776
H 14.9143 3.4278 14.142
H 13.2922 3.33342 13.4243
C 12.7485 7.83313 10.2502
C 12.7698 6.98826 8.95131
H 11.8001 6.50135 8.80507
H 13.5316 6.20117 8.98063
H 12.9728 7.62185 8.07895
C 12.4683 6.90677 11.458
H 12.4308 7.48596 12.3905
H 13.2386 6.14212 11.5706
H 11.5088 6.39437 11.3338
C 11.587 8.83812 10.138
H 11.4795 9.43587 11.0494
H 10.6476 8.30143 9.989
H 11.7243 9.52074 9.29179
C 17.3704 13.8723 11.2787
C 16.0971 14.7272 11.4065
H 15.4811 14.6769 10.4997
H 16.3684 15.7748 11.5638
H 15.4816 14.4104 12.2587
C 18.203 14.0648 12.5719
H 19.1623 13.5371 12.5309
H 17.6549 13.6943 13.4437
H 18.4213 15.1264 12.7275
C 18.1786 14.3956 10.0692
H 19.1197 13.852 9.9402
H 18.4204 15.4561 10.1975
H 17.6009 14.2861 9.1396
C 22.7236 13.1109 9.446
C 24.1446 13.6105 9.12472
H 24.8411 13.4071 9.94258
H 24.1249 14.6941 8.96527
H 24.5421 13.1539 8.21129
C 21.8096 13.473 8.24422
H 20.7694 13.1789 8.41362
H 22.1546 12.9674 7.33473
H 21.826 14.5531 8.07179
C 22.2333 13.8515 10.7131
H 22.8835 13.6258 11.5671
H 21.2131 13.5689 10.9861
H 22.2444 14.9372 10.5511
126
Atoms. Timestep: 70000
C 17.776 6.31021 10.8995
C 19.5466 8.52705 10.701
C 20.0765 7.17988 10.7747
C 19.2094 6.10193 10.9667
C 17.2696 7.59737 10.7154
C 18.1681 8.73408 10.7592
C 14.9056 10.395 10.5394
C 16.0005 9.52762 10.6196
C 23.1341 9.13478 10.237
C 24.1833 8.17635 10.1346
H 25.189 8.54327 9.96326
C 23.9238 6.81638 10.2178
C 22.5774 6.36379 10.433
H 22.3874 5.3049 10.4124
C 21.5422 7.26426 10.6008
C 19.4433 4.67026 11.2546
C 20.5344 3.88599 11.5737
H 21.5185 4.31523 11.6453
C 20.3776 2.49052 11.8703
C 19.1116 1.92783 11.8789
H 18.9679 0.877794 12.1105
C 17.9529 2.71971 11.6298
C 16.6036 2.28519 11.7282
H 16.4167 1.2427 11.9543
C 15.5482 3.17827 11.5753
C 15.8239 4.55481 11.2949
H 14.9969 5.24204 11.2514
C 17.1204 5.00416 11.1252
C 15.8976 8.11864 10.5308
C 14.6568 7.58823 10.2353
H 14.5351 6.52969 10.0641
C 13.5033 8.43377 10.102
C 13.6363 9.80638 10.2794
H 12.7764 10.4602 10.2066
C 15.1684 11.7817 10.7349
H 14.3343 12.4702 10.689
C 16.4577 12.2378 10.9913
C 17.5457 11.3072 11.0168
H 18.5329 11.6795 11.2435
C 17.3358 9.95979 10.7924
C 20.6854 9.45033 10.5112
C 20.8437 10.8018 10.2635
H 19.9869 11.449 10.1891
C 22.1438 11.3669 10.0588
C 23.2605 10.5386 10.0553
H 24.2517 10.9432 9.88074
C 21.8482 8.64179 10.4857
C 18.1652 4.06355 11.3073
C 25.027 5.75298 10.079
C 26.416 6.3755 9.82374
H 26.7251 7.02735 10.65
H 26.4343 6.95351 8.89503
H 27.164 5.5788 9.7336
C 25.1105 4.93147 11.389
H 25.3545 5.57895 12.241
H 25.8822 4.15916 11.3118
H 24.1644 4.43069 11.617
C 24.7012 4.81187 8.89682
H 23.7499 4.29066 9.03088
H 25.4829 4.05036 8.79332
H 24.6434 5.37522 7.95969
C 21.6506 1.67063 12.1714
C 22.3894 2.28472 13.3851
H 21.7494 2.27413 14.2725
H 22.6922 3.31963 13.2044
H 23.2966 1.70741 13.6019
C 22.5763 1.69227 10.9312
H 22.0754 1.24852 10.0627
H 23.4938 1.12604 11.1266
H 22.871 2.70968 10.6614
C 21.3352 0.197227 12.5005
H 20.6989 0.109291 13.3895
H 22.2671 41.1133 12.7084
H 20.84 41.1386 11.6677
C 14.0762 2.74931 11.7088
C 13.9195 1.24657 11.9996
H 14.3966 0.960843 12.9461
H 14.3471 0.63128 11.2022
H 12.8565 0.996022 12.0809
C 13.3306 3.05606 10.3858
H 13.3701 4.11852 10.1281
H 12.273 2.77553 10.4744
H 13.7677 2.49409 9.55357
C 13.4165 3.52936 12.8739
H 13.4555 4.61223 12.7203
H 13.9222 3.31123 13.8196
H 12.362 3.24732 12.9731
C 12.1484 7.77089 9.79355
C 12.2606 6.93213 8.49535
H 11.2981 6.46213 8.26857
H 13.0048 6.13236 8.58096
H 12.5435 7.56648 7.6462
C 11.7569 6.84342 10.9691
H 11.6538 7.4186 11.8991
H 12.5032 6.06554 11.1386
H 10.8024 6.34766 10.765
C 11.0161 8.79557 9.59453
H 10.8452 9.39058 10.498
H 10.0832 8.27531 9.36709
H 11.2321 9.47995 8.76633
C 16.7696 13.7273 11.2279
C 15.5041 14.6026 11.2582
H 14.9624 14.567 10.3045
H 15.7787 15.6448 11.4434
H 14.8169 14.292 12.0561
C 17.4983 13.8997 12.5851
H 18.4491 13.3563 12.6181
H 16.8759 13.5341 13.4076
H 17.7205 14.9567 12.7643
C 17.6809 14.243 10.0907
H 18.6204 13.6845 10.0344
H 17.9287 15.2987 10.2445
H 17.1783 14.1477 9.11692
C 22.2399 12.8861 9.82708
C 23.6901 13.3635 9.62426
H 24.3151 13.1446 10.4942
H 23.7008 14.4481 9.47047
H 24.1524 12.9049 8.74293
C 21.4316 13.2692 8.55794
H 20.3766 12.9915 8.6413
H 21.8406 12.7624 7.67594
H 21.4793 14.3497 8.39409
C 21.6612 13.6285 11.0553
H 22.2368 13.3879 11.9573
H 20.6179 13.3615 11.2435
H 21.7029 14.7146 10.9014
126
Atoms. Timestep: 80000
C 19.2579 5.93867 11.0251
C 19.1766 8.52501 12.2054
C 20.4105 8.02957 11.6283
C 20.4716 6.72451 11.1346
C 18.0478 6.46369 11.4801
C 18.0389 7.71744 12.2078
C 14.5369 6.67285 12.5177
C 15.9024 6.83415 12.2583
C 21.3552 11.4581 12.5295
C 22.6919 11.6177 12.0629
H 23.172 12.577 12.2208
C 23.3477 10.5917 11.3987
C 22.6777 9.33721 11.1955
H 23.1738 8.58512 10.6073
C 21.4045 9.12228 11.6889
C 21.5948 5.88639 10.662
C 22.9722 5.98646 10.6477
H 23.4646 6.85842 11.0414
C 23.7844 4.90952 10.1575
C 23.1847 3.73557 9.73103
H 23.7791 2.90449 9.3664
C 21.7715 3.56385 9.80098
C 21.0564 2.37148 9.50773
H 21.6124 1.51902 9.13754
C 19.685 2.28471 9.72329
C 18.9773 3.42099 10.2308
H 17.9312 3.31072 10.4577
C 19.6246 4.62006 10.4653
C 16.6576 5.95979 11.4405
C 15.974 4.96022 10.7758
H 16.4797 4.32167 10.0679
C 14.5637 4.77149 10.9724
C 13.8771 5.60342 11.8497
H 12.8188 5.46482 12.0309
C 13.9436 7.59033 13.4322
H 12.8908 7.4772 13.6571
C 14.6979 8.59484 14.0307
C 16.0816 8.73849 13.6913
H 16.6534 9.50772 14.1872
C 16.6826 7.89257 12.7786
C 19.4127 9.91457 12.6512
C 18.6417 10.9438 13.1603
H 17.5892 10.8039 13.3369
C 19.2116 12.2307 13.4256
C 20.5467 12.4679 13.1179
H 20.9921 13.4417 13.291
C 20.7641 10.2039 12.3404
C 21.0249 4.658 10.2487
C 24.7785 10.7402 10.853
C 25.366 12.1431 11.1153
H 25.4263 12.3622 12.1883
H 24.7744 12.9252 10.6301
H 26.3832 12.1964 10.7093
C 25.6982 9.7052 11.5463
H 25.7197 9.86719 12.6316
H 26.7218 9.78284 11.1667
H 25.3595 8.67887 11.3737
C 24.7842 10.4981 9.3263
H 24.4283 9.49887 9.06292
H 25.8015 10.6009 8.93106
H 24.1425 11.2252 8.81788
C 25.3141 5.11577 10.13
C 25.8237 5.4182 11.5599
H 25.5957 4.58774 12.2348
H 25.3712 6.32156 11.9777
H 26.9102 5.5684 11.5458
C 25.652 6.30115 9.19379
H 25.3107 6.10038 8.17136
H 26.7337 6.47452 9.16843
H 25.1796 7.22918 9.52599
C 26.0644 3.87297 9.60908
H 25.8865 2.99769 10.2456
H 27.1408 4.06924 9.61234
H 25.7769 3.62041 8.5836
C 18.8847 0.999029 9.44895
C 19.7606 41.3109 8.89818
H 20.5488 41.0219 9.60554
H 20.2353 41.5846 7.9511
H 19.1425 40.425 8.71798
C 17.7806 1.2956 8.40329
H 17.0939 2.07757 8.74063
H 17.1867 0.391839 8.21441
H 18.2203 1.62344 7.45544
C 18.2374 0.504684 10.7671
H 17.5664 1.25122 11.2032
H 19.0056 0.275537 11.5121
H 17.6497 41.0478 10.5867
C 13.8719 3.62318 10.2152
C 14.1103 3.7832 8.69235
H 13.6162 2.97145 8.14845
H 15.1746 3.75222 8.43333
H 13.7034 4.73675 8.33343
C 14.4652 2.27358 10.6864
H 14.2931 2.12862 11.7614
H 15.5406 2.21902 10.51
H 13.9989 1.44134 10.1492
C 12.3506 3.586 10.4513
H 12.1087 3.42048 11.5066
H 11.909 2.76381 9.8841
H 11.8692 4.51614 10.1287
C 14.09 9.58768 15.039
C 12.6228 9.26887 15.377
H 11.9797 9.32544 14.4896
H 12.2449 9.99167 16.1054
H 12.5174 8.26764 15.815
C 14.8997 9.55262 16.3602
H 15.9479 9.83548 16.2128
H 14.8827 8.54971 16.7979
H 14.472 10.2526 17.0855
C 14.145 11.0138 14.4448
H 15.1695 11.3208 14.2126
H 13.7303 11.7413 15.1507
H 13.5619 11.0693 13.5138
C 18.2967 13.3127 14.0282
C 19.0324 14.6447 14.2665
H 19.8693 14.5279 14.9602
H 18.3392 15.3738 14.7
H 19.4147 15.0735 13.3334
C 17.1142 13.5894 13.0608
H 16.5191 12.6915 12.8692
H 17.4859 13.9547 12.0962
H 16.4483 14.3449 13.4879
C 17.75 12.8202 15.3894
H 18.572 12.6433 16.0936
H 17.1858 11.8887 15.2935
H 17.0789 13.5706 15.8272
126
Atoms. Timestep: 90000
C 18.2592 8.67819 10.5905
C 18.1705 11.5203 10.6472
C 19.4455 10.836 10.5626
C 19.4913 9.44172 10.6298
C 17.0322 9.34187 10.5583
C 16.9907 10.7804 10.7321
C 13.419 9.94758 10.7139
C 14.8173 9.99171 10.6903
C 20.4804 14.3418 10.2493
C 21.8882 14.3033 10.0338
H 22.4064 15.2468 9.90417
C 22.5702 13.0978 9.95891
C 21.8506 11.8652 10.123
H 22.3842 10.9419 9.97978
C 20.4957 11.8632 10.3965
C 20.6113 8.48324 10.7489
C 21.9717 8.567 10.9722
H 22.452 9.52249 11.0911
C 22.7711 7.38247 11.1049
C 22.1677 6.13648 11.0508
H 22.7503 5.2278 11.159
C 20.7563 6.00867 10.898
C 20.014 4.79811 10.9481
H 20.5583 3.86766 11.0519
C 18.6238 4.8054 10.9023
C 17.9283 6.05106 10.7833
H 16.8529 6.04056 10.8217
C 18.6155 7.24496 10.6642
C 15.6369 8.86545 10.4386
C 15.0086 7.6868 10.0861