126
Atoms. Timestep: 0
C 18.3754 18.4745 10.525
C 18.3754 21.318 10.525
C 19.6299 20.5927 10.485
C 19.6299 19.1999 10.58
C 17.1717 19.175 10.45
C 17.1717 20.6175 10.595
C 13.5764 19.8963 10.505
C 14.9755 19.8963 10.515
C 20.7827 24.0579 10.13
C 22.1935 23.9709 9.95
H 22.7446 24.8952 9.815
C 22.8383 22.7439 9.915
C 22.0763 21.5377 10.085
H 22.5843 20.5927 9.975
C 20.7163 21.5833 10.325
C 20.7163 18.2093 10.745
C 22.0724 18.2548 11
H 22.5804 19.1999 11.11
C 22.8305 17.0486 11.175
C 22.1896 15.8217 11.13
H 22.7406 14.8973 11.27
C 20.7788 15.7347 10.945
C 19.9972 14.5492 11
H 20.5092 13.6041 11.135
C 18.6099 14.5989 10.92
C 17.9573 15.8631 10.76
H 16.8787 15.888 10.77
C 18.6841 17.0321 10.635
C 15.7649 18.7398 10.305
C 15.1083 17.5751 9.96
H 15.6633 16.6839 9.7
C 13.6741 17.5253 9.895
C 12.9355 18.6652 10.19
H 11.853 18.6445 10.17
C 12.9316 21.1274 10.82
H 11.8491 21.1481 10.83
C 13.6702 22.2673 11.12
C 15.1005 22.2175 11.07
H 15.6555 23.1087 11.33
C 15.761 21.0528 10.73
C 18.6841 22.7605 10.42
C 17.9573 23.9294 10.29
H 16.8787 23.9046 10.27
C 18.6138 25.1937 10.14
C 20.0011 25.2434 10.07
H 20.517 26.1885 9.935
C 20.0949 22.8559 10.33
C 20.0949 16.9367 10.74
C 24.3547 22.6113 9.69
C 25.0425 23.9792 9.495
H 24.9213 24.6217 10.375
H 24.6517 24.5056 8.62
H 26.1172 23.83 9.34
C 24.9956 21.9315 10.925
H 24.8275 22.5284 11.83
H 26.0742 21.8154 10.785
H 24.5774 20.9367 11.105
C 24.6243 21.7574 8.43
H 24.2101 20.7502 8.515
H 25.7029 21.6579 8.265
H 24.1827 22.2258 7.545
C 24.3508 17.1813 11.41
C 24.6087 18.0352 12.675
H 24.1593 17.5668 13.555
H 24.1944 19.0424 12.585
H 25.6873 18.1346 12.845
C 24.9995 17.8611 10.18
H 24.8393 17.2642 9.275
H 26.0781 17.9771 10.33
H 24.5852 18.8559 10
C 25.0346 15.8134 11.61
H 24.636 15.287 12.485
H 26.1054 15.9626 11.775
H 24.9213 15.1668 10.735
C 17.7306 13.3388 11.01
C 18.5552 12.0497 11.17
H 19.1531 12.058 12.09
H 19.2313 11.8922 10.325
H 17.883 11.1875 11.225
C 16.8904 13.2062 9.715
H 16.2495 14.0766 9.55
H 16.2416 12.3233 9.775
H 17.5391 13.0984 8.84
C 16.7888 13.4549 12.235
H 16.14 14.3336 12.175
H 17.3671 13.5336 13.16
H 16.144 12.572 12.305
C 13.0097 16.1865 9.525
C 13.5529 15.6932 8.16
H 13.0801 14.744 7.89
H 14.6355 15.5274 8.18
H 13.338 16.4227 7.37
C 13.338 15.1378 10.615
H 12.9472 15.4569 11.59
H 14.4127 14.9844 10.72
H 12.8886 14.172 10.365
C 11.4778 16.2942 9.41
H 11.0206 16.5885 10.36
H 11.0596 15.3243 9.135
H 11.1808 17.0196 8.645
C 13.0019 23.6061 11.485
C 11.47 23.4983 11.585
H 11.0206 23.1999 10.63
H 11.0479 24.4683 11.86
H 11.1652 22.773 12.35
C 13.5334 24.0994 12.855
H 14.6159 24.2652 12.845
H 13.3146 23.3698 13.64
H 13.0605 25.0486 13.125
C 13.338 24.6548 10.4
H 14.4166 24.8082 10.3
H 12.8847 25.6206 10.645
H 12.955 24.3356 9.42
C 17.7345 26.4538 10.04
C 18.563 27.7429 9.885
H 19.2313 27.9004 10.735
H 17.8908 28.6051 9.825
H 19.1648 27.7346 8.97
C 16.8005 26.3377 8.805
H 16.1518 25.459 8.86
H 17.3906 26.259 7.885
H 16.1596 27.2206 8.735
C 16.8826 26.5864 11.325
H 17.5274 26.6942 12.205
H 16.2416 25.7159 11.485
H 16.2338 27.4693 11.265
126
Atoms. Timestep: 10000
C 19.0015 19.3011 12.6628
C 19.9337 21.9549 13.033
C 20.6043 20.8609 13.6096
C 20.1338 19.5447 13.4812
C 18.3257 20.4061 12.0871
C 18.7436 21.7475 12.3343
C 15.5065 22.4016 11.344
C 16.5535 21.7816 12.0509
C 23.2618 23.031 12.9085
C 24.4045 22.2568 13.1296
H 25.3511 22.624 12.7306
C 24.3539 20.9662 13.716
C 23.0645 20.4018 13.8601
H 22.8962 19.2929 13.8992
C 21.93 21.2727 13.8298
C 20.2103 18.5689 14.4603
C 20.7951 18.7069 15.74
H 21.4794 19.4857 15.9039
C 20.2443 18.007 16.8213
C 19.1081 17.1701 16.5757
H 18.6169 16.6805 17.382
C 18.491 17.1328 15.3434
C 17.2889 16.4503 15.0724
H 16.8813 15.8732 15.8765
C 16.6511 16.5358 13.8017
C 17.2031 17.4919 12.9155
H 16.7249 17.6699 11.9515
C 18.4631 18.0875 13.1458
C 16.9835 20.4791 11.7309
C 16.3441 19.8292 10.6556
H 16.8558 18.998 10.1502
C 15.0379 20.2786 10.1663
C 14.6726 21.6231 10.5084
H 13.8128 22.0333 10.0437
C 15.3367 23.7833 11.4562
H 14.4004 24.2065 11.0619
C 16.3497 24.5788 12.1165
C 17.5393 23.9327 12.5154
H 18.3479 24.4951 12.9402
C 17.6184 22.5337 12.5079
C 20.8419 23.009 12.9118
C 20.8207 23.9949 11.9212
H 19.9005 24.182 11.3454
C 22.0137 24.5981 11.497
C 23.2149 24.1089 12.0504
H 24.1925 24.5215 11.7285
C 22.0615 22.5603 13.3955
C 19.1554 17.7357 14.2779
C 25.6434 20.1566 13.875
C 26.8567 20.9673 14.4426
H 26.7015 21.3099 15.5009
H 27.091 21.8703 13.8718
H 27.8112 20.3983 14.3982
C 25.4983 18.9128 14.7876
H 25.0021 19.1688 15.7441
H 26.447 18.3967 15.0172
H 24.8274 18.1584 14.3259
C 25.9982 19.6726 12.4554
H 25.2453 19.0121 12.0343
H 26.8639 18.9992 12.5294
H 26.2394 20.4805 11.7527
C 20.6624 18.3 18.2677
C 20.2226 19.7371 18.6312
H 19.1278 19.9246 18.569
H 20.7385 20.5509 18.0875
H 20.4563 19.9619 19.6795
C 22.1951 18.1881 18.3791
H 22.5179 17.1352 18.2857
H 22.5076 18.5035 19.3754
H 22.7691 18.7815 17.6674
C 20.1506 17.3095 19.346
H 19.0485 17.3526 19.5494
H 20.6341 17.5038 20.3323
H 20.4739 16.2859 19.0913
C 15.4293 15.7012 13.371
C 15.0591 14.5896 14.3997
H 14.789 15.0663 15.3612
H 15.9108 13.9352 14.6574
H 14.1872 13.9557 14.1057
C 15.7256 14.9036 12.0734
H 15.8362 15.6459 11.2647
H 14.979 14.1921 11.7952
H 16.7126 14.423 12.1464
C 14.1883 16.6447 13.1936
H 14.4132 17.388 12.3953
H 14.0129 17.1818 14.1348
H 13.2679 16.0834 12.9544
C 14.1838 19.4373 9.20898
C 14.5408 17.9226 9.12369
H 13.8642 17.3855 8.41377
H 14.4279 17.4509 10.1085
H 15.5772 17.7336 8.75424
C 12.7022 19.4781 9.71328
H 12.159 20.4103 9.37847
H 12.717 19.3619 10.8165
H 12.1247 18.5749 9.35468
C 14.3832 20.0625 7.81828
H 13.8885 21.0093 7.76545
H 13.9531 19.4252 7.02036
H 15.4795 20.1685 7.52709
C 16.2684 26.1127 11.9579
C 14.9306 26.6179 12.5475
H 14.0412 26.3841 11.9024
H 14.97 27.7158 12.7333
H 14.6928 26.1013 13.5105
C 17.368 26.8723 12.7878
H 18.3794 26.6365 12.4639
H 17.3472 26.5703 13.8667
H 17.251 27.96 12.6289
C 16.3717 26.5723 10.4563
H 17.2309 26.092 9.98404
H 16.4519 27.6761 10.3706
H 15.5274 26.2553 9.82579
C 22.0137 25.5679 10.3547
C 21.428 24.8887 9.07582
H 22.0071 23.9666 8.82148
H 21.4259 25.572 8.19756
H 20.3689 24.5515 9.21701
C 21.1674 26.808 10.7056
H 21.4635 27.2036 11.7021
H 20.0849 26.5613 10.8249
H 21.2373 27.6463 9.97567
C 23.4067 26.1347 9.95822
H 24.1001 25.378 9.48879
H 23.8988 26.5937 10.8653
H 23.374 26.9185 9.18822
126
Atoms. Timestep: 20000
C 16.1788 24.2976 12.8873
C 18.7391 25.0171 13.796
C 18.3044 23.6804 13.8485
C 17.0175 23.3285 13.4452
C 16.6917 25.5873 12.6719
C 17.8784 25.9797 13.2695
C 16.5085 29.0939 12.7613
C 16.5461 27.7681 13.1574
C 21.656 23.2522 12.8607
C 21.7558 21.8986 12.5616
H 22.6572 21.4922 12.1579
C 20.6805 20.979 12.8516
C 19.4614 21.5593 13.3264
H 18.5509 21.0238 13.1774
C 19.4194 22.8653 13.7436
C 16.2168 22.4138 14.152
C 16.5421 21.587 15.263
H 17.6039 21.309 15.4468
C 15.5108 21.143 16.153
C 14.2122 21.6952 16.0248
H 13.3796 21.4672 16.6858
C 13.9187 22.5408 14.9103
C 12.6828 23.2196 14.7776
H 11.8678 22.989 15.4976
C 12.5741 24.381 13.9675
C 13.6669 24.6872 13.1077
H 13.5894 25.371 12.2994
C 14.8476 23.9328 13.1776
C 15.9548 26.7546 12.4506
C 15.2832 27.0355 11.2819
H 14.9563 26.2209 10.7146
C 15.1636 28.391 10.8338
C 15.7417 29.4069 11.6424
H 15.6724 30.4717 11.3313
C 17.462 29.9948 13.2858
H 17.4657 30.9986 12.937
C 18.4546 29.5324 14.2344
C 18.6822 28.1333 14.3396
H 19.5793 27.7186 14.7555
C 17.7102 27.2677 13.733
C 20.1353 25.0174 13.5854
C 20.9402 25.9612 12.9018
H 20.5415 26.9882 12.751
C 22.1584 25.5867 12.3182
C 22.5365 24.2307 12.338
H 23.4541 23.8994 11.8741
C 20.5322 23.6978 13.5846
C 14.9118 22.7937 13.9809
C 20.7106 19.4584 12.5054
C 22.1597 18.9239 12.3775
H 22.6548 19.0676 13.353
H 22.7468 19.4509 11.5553
H 22.1358 17.8176 12.1176
C 19.9355 18.6001 13.5694
H 20.4301 18.7397 14.5352
H 19.9764 17.4846 13.3241
H 18.8865 18.8719 13.6253
C 20.0584 19.2559 11.1087
H 19.0198 19.5937 11.1835
H 20.0902 18.1908 10.7951
H 20.5154 19.8589 10.3247
C 15.8171 20.1619 17.3246
C 14.582 19.6343 18.0463
H 13.7739 19.2947 17.3766
H 14.0468 20.3875 18.6592
H 14.8002 18.7615 18.6869
C 16.6981 20.9603 18.3261
H 17.6507 21.3305 17.9039
H 16.8797 20.3384 19.2419
H 16.1214 21.8659 18.5359
C 16.6294 18.8985 16.9228
H 16.0601 18.3433 16.1549
H 16.8922 18.2521 17.8068
H 17.5818 19.2156 16.4757
C 11.2508 25.133 13.7668
C 10.3569 25.0638 15.0346
H 10.8898 25.3448 15.9762
H 9.82917 24.1344 15.2362
H 9.51884 25.836 14.9481
C 10.4957 24.5345 12.5873
H 10.975 24.8139 11.6257
H 9.45423 24.8977 12.529
H 10.4751 23.4488 12.6765
C 11.4388 26.6501 13.5866
H 11.9445 26.8717 12.671
H 12.1395 27.0881 14.286
H 10.5018 27.2722 13.4542
C 14.3561 28.6953 9.5426
C 12.8978 28.9137 9.96821
H 12.2928 29.0313 9.06066
H 12.7479 29.8139 10.5564
H 12.5316 28.0307 10.5109
C 14.7749 30.0125 8.83496
H 15.8559 29.9824 8.57931
H 14.635 30.9203 9.42984
H 14.217 30.1623 7.85028
C 14.4624 27.5579 8.4895
H 15.5107 27.3389 8.23637
H 13.93 27.8774 7.55547
H 13.9972 26.5984 8.77644
C 19.3931 30.5181 15.0025
C 20.6258 30.7893 14.1584
H 21.2608 29.837 14.0789
H 21.2686 31.5551 14.6399
H 20.3598 31.1611 13.1414
C 18.6893 31.8699 15.2988
H 17.7243 31.6847 15.8342
H 18.3796 32.4389 14.4059
H 19.3072 32.5736 15.9274
C 19.8524 29.9808 16.3779
H 18.9461 29.6315 16.9135
H 20.3235 30.7567 16.991
H 20.5852 29.1577 16.2391
C 23.051 26.5851 11.5323
C 24.3986 26.6873 12.2526
H 24.3054 27.2231 13.201
H 25.0858 27.3324 11.6723
H 24.8513 25.6985 12.445
C 23.285 26.0895 10.0527
H 22.3472 25.8838 9.53254
H 23.8098 25.1258 10.0254
H 23.8344 26.8311 9.3731
C 22.4116 28.0024 11.3863
H 22.1976 28.4714 12.3559
H 21.4858 27.8523 10.7805
H 23.0907 28.6699 10.8066
126
Atoms. Timestep: 30000
C 11.7889 29.6954 11.7389
C 13.9918 28.1311 12.4339
C 12.7206 27.5613 12.4467
C 11.6196 28.3846 12.158
C 13.0849 30.2245 11.6288
C 14.1571 29.491 12.1064
C 15.5865 32.6678 12.0687
C 14.6473 31.6627 12.3382
C 14.6209 25.0595 10.9519
C 13.7247 24.0946 10.4961
H 14.1153 23.2921 9.90883
C 12.3348 24.2071 10.7782
C 11.8993 25.335 11.5637
H 10.866 25.5194 11.7393
C 12.845 26.1992 12.1003
C 10.3514 28.2588 12.6635
C 9.98805 27.4249 13.7479
H 10.4534 26.467 13.9052
C 8.77586 27.7265 14.4514
C 8.13202 28.9735 14.2445
H 7.27705 29.2898 14.8797
C 8.59772 29.8669 13.2389
C 8.27038 31.2276 13.1726
H 7.26967 31.4732 13.5142
C 9.04926 32.2274 12.5462
C 10.2099 31.7342 11.9143
H 10.7947 32.3934 11.3174
C 10.5305 30.359 11.8521
C 13.4571 31.565 11.6566
C 13.263 32.4772 10.6099
H 12.5644 32.2305 9.82322
C 14.0922 33.5589 10.3835
C 15.2797 33.6286 11.1155
H 16.0722 34.3564 10.9316
C 16.8552 32.5783 12.6943
H 17.6085 33.3506 12.5603
C 17.2269 31.3088 13.3194
C 16.3412 30.2024 13.2808
H 16.6319 29.2019 13.6277
C 15.0424 30.4253 12.7251
C 14.9142 27.1722 12.0768
C 16.0863 27.3965 11.385
H 16.4809 28.3773 11.2659
C 16.6489 26.3648 10.6281
C 15.9211 25.1385 10.4856
H 16.2783 24.3438 9.85626
C 14.1841 26.0227 11.8623
C 9.68678 29.4576 12.4498
C 11.3248 23.2093 10.1825
C 9.83862 23.659 10.2882
H 9.69344 24.6119 9.77226
H 9.48408 23.7538 11.3355
H 9.10196 22.9776 9.74102
C 11.5977 23.0366 8.64008
H 11.7162 24.0139 8.10992
H 10.7378 22.5816 8.14587
H 12.5172 22.3912 8.37189
C 11.4774 21.9014 10.9104
H 12.5024 21.4438 10.776
H 10.8162 21.087 10.6082
H 11.3945 22.0765 11.9976
C 8.26147 26.7331 15.5535
C 6.83106 27.053 16.0917
H 6.06338 27.2653 15.2962
H 6.78764 27.9332 16.7445
H 6.36504 26.2469 16.72
C 9.24569 26.7043 16.7502
H 10.1967 26.244 16.4133
H 8.90938 26.0126 17.6017
H 9.40317 27.7199 17.1451
C 8.12493 25.2936 15.015
H 7.55554 25.3447 14.0837
H 7.66154 24.5879 15.7186
H 9.12903 24.8119 14.8012
C 8.7496 33.7123 12.6464
C 9.71542 34.2181 13.7084
H 10.7407 33.9275 13.4112
H 9.48325 33.7518 14.6849
H 9.70533 35.3448 13.7942
C 7.29796 34.0162 13.1509
H 6.53401 33.5382 12.4994
H 7.15061 35.079 13.1297
H 7.03817 33.6311 14.1618
C 8.92055 34.4122 11.2745
H 8.28084 34.0043 10.4635
H 9.96287 34.4147 10.8865
H 8.63325 35.4578 11.3121
C 13.8339 34.4986 9.19545
C 14.6623 35.8169 9.25983
H 14.4223 36.6045 8.52299
H 15.7572 35.7187 9.06364
H 14.6016 36.2414 10.286
C 14.1348 33.7169 7.91866
H 13.5983 32.7398 7.83936
H 15.2442 33.5298 7.87471
H 13.9003 34.2632 6.97159
C 12.3593 34.9434 9.12527
H 11.6202 34.0704 9.0645
H 12.1476 35.5739 8.23434
H 11.9906 35.5598 9.98499
C 18.5967 31.2778 14.0703
C 19.7866 31.419 13.1293
H 19.8611 30.5541 12.3925
H 20.7318 31.4338 13.7161
H 19.8172 32.3269 12.5459
C 18.6035 32.4561 15.0676
H 17.8131 32.2778 15.8393
H 18.4091 33.4944 14.7067
H 19.5967 32.5586 15.5598
C 18.8346 29.965 14.8664
H 17.9994 29.6582 15.5483
H 19.7911 30.008 15.4844
H 18.9301 29.1155 14.1779
C 17.9889 26.5143 9.97615
C 18.7016 25.1557 9.7037
H 18.6831 24.4346 10.5624
H 19.7815 25.1959 9.37669
H 18.2832 24.6547 8.8077
C 17.7638 27.3611 8.67093
H 17.2219 28.3186 8.92466
H 17.169 26.7894 7.97557
H 18.6937 27.5904 8.19832
C 19.0017 27.2112 10.8992
H 19.2091 26.634 11.8402
H 18.6853 28.2633 11.175
H 19.9332 27.4923 10.4018
126
Atoms. Timestep: 40000
C 10.0344 32.1166 11.4823
C 10.1876 29.3949 12.3824
C 8.94055 30.0135 12.1067
C 8.87537 31.3823 11.6552
C 11.25 31.4828 11.8049
C 11.3376 30.2182 12.385
C 14.7073 30.9385 11.5384
C 13.3386 30.7292 11.4979
C 8.47229 26.8439 10.7002
C 7.32291 26.9851 9.91725
H 7.06847 26.1562 9.25759
C 6.40028 28.0288 10.1999
C 6.90729 29.179 10.8682
H 6.67206 30.1553 10.5169
C 8.0804 28.9993 11.6762
C 7.8298 32.2869 11.8836
C 6.62988 32.088 12.5988
H 6.34567 31.1116 12.9423
C 5.80032 33.2117 12.9167
C 6.41372 34.5235 12.8524
H 6.03509 35.362 13.4514
C 7.72003 34.6812 12.3747
C 8.51952 35.7934 12.7156
H 8.08544 36.5923 13.2723
C 9.94167 35.7412 12.5461
C 10.5129 34.4938 12.0865
H 11.5837 34.2803 12.2707
C 9.68323 33.4704 11.6026
C 12.467 31.7674 11.2253
C 12.8863 32.8724 10.4344
H 12.1452 33.6418 10.0722
C 14.313 33.0206 10.2198
C 15.1777 32.0914 10.9175
H 16.2391 32.2198 10.9208
C 15.4605 30.1986 12.4385
H 16.5437 30.3603 12.4774
C 14.8144 29.1905 13.2682
C 13.38 29.0958 13.2237
H 12.8179 28.7015 14.0803
C 12.6738 29.8007 12.2718
C 10.0684 28.0594 12.0437
C 11.0813 27.1683 11.603
H 12.0126 27.1095 12.1477
C 10.8011 26.1239 10.6777
C 9.49001 26.0184 10.2015
H 9.19903 25.2945 9.47904
C 8.77004 27.8139 11.6797
C 8.35264 33.5762 11.7648
C 5.03936 28.1153 9.43415
C 4.01352 29.0078 10.2092
H 4.24369 30.1216 10.1561
H 3.93153 28.7256 11.2667
H 2.98809 28.9335 9.77133
C 5.2783 28.6726 8.02139
H 5.69419 29.6962 8.10592
H 4.28512 28.5646 7.46455
H 6.12402 28.1245 7.4404
C 4.42901 26.6937 9.32801
H 4.82081 26.1841 8.46806
H 3.28362 26.7391 9.19726
H 4.54056 26.1336 10.2806
C 4.44025 32.9905 13.5618
C 3.65731 34.3068 13.8056
H 3.71323 34.9872 12.9211
H 4.07418 34.8768 14.6769
H 2.59699 34.1752 14.0444
C 4.5871 32.3556 14.9636
H 5.02251 31.3623 14.8577
H 3.56886 32.2059 15.3786
H 5.18733 32.9619 15.689
C 3.60002 32.0593 12.6151
H 3.43979 32.574 11.6055
H 2.63586 31.7624 13.0442
H 4.08534 31.1154 12.3561
C 10.7947 36.8748 13.0357
C 10.7965 36.8348 14.5974
H 11.15 35.8636 14.9228
H 9.75281 36.9189 15.0208
H 11.3971 37.6911 15.0198
C 10.1782 38.2336 12.6186
H 10.1309 38.1951 11.4959
H 10.9556 39.0386 12.7858
H 9.18182 38.5052 13.0468
C 12.2809 36.8366 12.5126
H 12.297 36.6878 11.4271
H 12.8722 36.0029 12.9136
H 12.7638 37.7844 12.7366
C 14.9314 34.2086 9.41957
C 15.4274 35.2349 10.4202
H 15.7718 36.2382 10.0158
H 16.2908 34.8366 11.0233
H 14.5573 35.5559 11.0316
C 16.16 33.6948 8.5801
H 15.9147 32.7068 8.10404
H 17.0558 33.5107 9.20743
H 16.5113 34.3704 7.77921
C 13.9829 34.877 8.37511
H 13.8253 34.1445 7.54329
H 14.376 35.8411 7.95753
H 13.0897 35.3091 8.91916
C 15.6081 28.306 14.2537
C 16.7679 27.5964 13.496
H 16.3644 27.2469 12.5313
H 17.1838 26.7472 14.0505
H 17.6299 28.2393 13.2329
C 16.2078 29.2344 15.3552
H 15.3875 29.644 15.9305
H 16.815 30.0969 14.9365
H 16.6902 28.6791 16.1413
C 14.8184 27.2241 15.0125
H 14.0364 27.6225 15.6868
H 15.4819 26.5531 15.6428
H 14.2836 26.5179 14.2822
C 11.9257 25.1498 10.1929
C 11.8331 25.0961 8.64477
H 10.887 24.6698 8.24488
H 12.6413 24.4274 8.26535
H 11.8584 26.1354 8.18126
C 13.4079 25.5432 10.5749
H 13.5529 25.3512 11.6334
H 13.5977 26.6129 10.3724
H 14.127 24.861 10.0034
C 11.6437 23.7842 10.7872
H 10.6254 23.4196 10.5697
H 11.7006 23.7421 11.9373
H 12.2498 22.8791 10.4132
126
Atoms. Timestep: 50000
C 12.3521 30.3452 9.83773
C 11.402 29.3286 12.3091
C 10.5007 29.5945 11.2596
C 10.9756 30.0912 10.012
C 13.2103 29.7802 10.7652
C 12.7368 29.4062 11.9812
C 16.1873 29.5204 12.6309
C 14.9296 29.3631 12.0813
C 8.78564 27.1001 13.0407
C 7.82201 26.5688 12.1083
H 7.35526 25.6384 12.3266
C 7.72161 27.1463 10.8242
C 8.65968 28.1461 10.4233
H 8.84035 28.4576 9.38348
C 9.39818 28.7678 11.4417
C 10.2972 31.0786 9.2618
C 8.98222 31.4787 9.47554
H 8.35393 30.9366 10.1721
C 8.56504 32.7493 9.05771
C 9.59186 33.6552 8.58663
H 9.33844 34.7167 8.51253
C 10.9187 33.3049 8.51003
C 11.9626 34.2323 8.55152
H 11.6769 35.2321 8.38077
C 13.2166 33.9103 9.03793
C 13.4984 32.5448 9.26549
H 14.3057 32.3174 9.89437
C 12.5162 31.5284 9.03156
C 14.6112 29.7365 10.8297
C 15.6435 29.9993 9.90095
H 15.3597 30.1106 8.84381
C 17.0035 30.1134 10.3454
C 17.2756 29.8656 11.7416
H 18.3038 29.6053 12.0674
C 16.3288 29.5349 14.0353
H 17.3001 29.6522 14.4563
C 15.1657 29.5719 14.8513
C 13.8962 29.4855 14.193
H 12.95 29.6191 14.7767
C 13.8259 29.2265 12.8318
C 10.7729 28.4762 13.2376
C 11.3776 27.4588 14.0576
H 12.3915 27.4515 14.203
C 10.5791 26.4595 14.6521
C 9.28494 26.2959 14.1205
H 8.57792 25.6652 14.6567
C 9.54444 28.1941 12.6628
C 11.2471 31.9406 8.6702
C 6.78986 26.5061 9.76757
C 6.37954 27.4706 8.58436
H 7.28908 27.7869 7.93733
H 5.72624 28.2858 9.01963
H 5.71786 26.9285 7.9146
C 7.61466 25.3114 9.21261
H 8.58 25.7215 8.83048
H 7.08676 24.9611 8.27098
H 7.92808 24.4774 9.8766
C 5.41707 26.0981 10.4281
H 5.48607 25.1257 10.9301
H 4.58701 26.0157 9.71824
H 5.16868 26.8371 11.2447
C 7.11707 33.2104 9.18221
C 6.77009 34.4298 8.26618
H 7.00613 34.2855 7.17787
H 7.20933 35.3861 8.5832
H 5.67631 34.6923 8.22442
C 7.10476 33.699 10.6312
H 7.38483 32.9698 11.4089
H 6.10443 34.07 10.8409
H 7.7285 34.5866 10.8587
C 6.07752 32.1192 8.90199
H 6.23083 31.7271 7.8587
H 5.03886 32.456 9.05296
H 6.16843 31.2468 9.59028
C 14.226 34.9509 9.47748
C 14.096 35.0554 11.0259
H 14.4618 34.2237 11.6535
H 13.0206 35.2652 11.3078
H 14.684 35.8663 11.4426
C 13.9819 36.3474 8.8965
H 13.9686 36.2088 7.83002
H 14.7202 37.1268 9.12965
H 13.0404 36.8168 9.27905
C 15.698 34.5577 9.22507
H 15.7497 34.4158 8.17198
H 15.9809 33.638 9.72275
H 16.3722 35.4194 9.42737
C 18.1394 30.5366 9.38301
C 18.8502 31.7827 9.93807
H 19.6928 32.1015 9.29017
H 19.2893 31.5007 10.8624
H 18.1648 32.636 10.1314
C 19.061 29.3616 9.22275
H 18.4291 28.5485 8.81578
H 19.433 28.9369 10.1906
H 19.8895 29.583 8.53231
C 17.688 31.0656 7.97612
H 17.1872 30.2719 7.43791
H 18.48 31.3366 7.25949
H 16.911 31.8584 7.99372
C 15.1981 29.8929 16.3367
C 14.669 31.3276 16.5633
H 15.3451 32.0923 16.1116
H 14.6454 31.5118 17.6629
H 13.6619 31.4871 16.0552
C 14.3854 28.8591 17.1577
H 14.7473 27.8419 16.881
H 13.2934 28.8996 16.9893
H 14.5419 28.9615 18.2715
C 16.6559 29.934 16.9455
H 17.1412 28.9481 16.7888
H 16.6313 30.157 18.0537
H 17.4067 30.6139 16.5658
C 11.1061 25.5224 15.7906
C 12.6317 25.4284 15.9453
H 13.0808 25.1367 15.0229
H 12.9168 24.8062 16.8687
H 13.037 26.4347 16.1487
C 10.4448 26.0646 17.0886
H 9.34111 25.9836 17.1385
H 10.6818 27.1487 17.2411
H 10.872 25.5496 17.9981
C 10.6377 24.0632 15.5791
H 11.1762 23.6196 14.6808
H 9.59264 23.8666 15.4726
H 10.845 23.4971 16.502
126
Atoms. Timestep: 60000
C 13.2264 32.1618 10.0734
C 13.1115 30.5574 12.4155
C 12.1523 30.3904 11.3682
C 12.1769 31.2399 10.2043
C 14.2158 32.2848 11.0521
C 14.1005 31.587 12.2962
C 16.9877 33.395 12.7852
C 16.1049 32.4553 12.2462
C 12.6362 27.0701 12.2483
C 11.9646 26.2835 11.319
H 12.0625 25.1839 11.3363
C 11.1598 26.9401 10.3628
C 11.2139 28.3495 10.2861
H 10.6443 28.8495 9.54729
C 11.7058 29.0753 11.3744
C 11.0666 31.6727 9.51106
C 9.71721 31.5059 9.99411
H 9.51492 30.8298 10.7936
C 8.70023 32.4191 9.50635
C 9.13165 33.4893 8.70229
H 8.40366 34.1879 8.26099
C 10.5094 33.7945 8.57707
C 10.9384 35.1656 8.46263
H 10.1181 35.8643 8.49617
C 12.2069 35.5867 8.92741
C 13.1116 34.5437 9.28851
H 13.9795 34.7982 9.73441
C 12.7683 33.1461 9.1776
C 15.5747 32.6754 10.9859
C 16.1445 33.5709 10.0906
H 15.8548 33.4885 9.08342
C 17.3615 34.2432 10.4546
C 17.6445 34.2548 11.8845
H 18.2694 35.0484 12.2858
C 17.127 33.5584 14.1844
H 17.8049 34.3523 14.4979
C 16.2086 32.8374 15.0347
C 15.1822 32.0215 14.4518
H 14.3659 31.6156 15.062
C 15.2417 31.8151 13.0708
C 13.3176 29.2663 12.9208
C 14.4567 28.7508 13.5217
H 14.8982 29.3499 14.2875
C 14.6288 27.3542 13.613
C 13.7489 26.5157 12.9327
H 14.0155 25.4634 12.8155
C 12.399 28.4619 12.3291
C 11.4617 32.8403 8.82245
C 10.1913 26.1559 9.47901
C 10.174 24.6259 9.75259
H 9.8219 24.4706 10.802
H 11.1645 24.2096 9.46499
H 9.3518 24.1456 9.15461
C 8.71022 26.6808 9.79729
H 8.52125 26.5125 10.8729
H 7.93725 26.2151 9.19244
H 8.68205 27.731 9.5204
C 10.4942 26.4422 7.99898
H 10.4279 27.5335 7.7297
H 9.7273 25.9007 7.41177
H 11.4734 26.0054 7.7236
C 7.22158 32.1396 9.619
C 6.41599 33.4684 9.73935
H 6.31762 33.9613 8.73567
H 6.8247 34.1968 10.4844
H 5.34359 33.235 10.1159
C 6.88555 31.3293 10.9772
H 7.32162 30.3474 11.0561
H 5.80015 31.2228 11.0728
H 7.15854 31.9247 11.8281
C 6.76938 31.4991 8.29884
H 6.97874 32.1628 7.40826
H 5.6681 31.3338 8.33991
H 7.26197 30.5304 8.09001
C 12.6311 37.0733 8.85394
C 13.1209 37.5481 10.2081
H 14.0569 37.0296 10.4816
H 12.4361 37.3082 11.0716
H 13.3683 38.61 10.2171
C 11.4752 38.0183 8.43287
H 11.1366 37.6444 7.479
H 11.8805 39.053 8.23507
H 10.6181 38.1139 9.15928
C 13.7034 37.1913 7.72491
H 13.4913 36.6257 6.80911
H 14.711 36.7588 8.17993
H 14.0239 38.2043 7.40919
C 18.1005 35.2263 9.51119
C 17.6049 36.6566 9.91997
H 17.9531 37.4452 9.19846
H 17.9276 37.0407 10.9086
H 16.5131 36.6938 9.79298
C 19.609 35.1543 9.73658
H 19.9393 34.1407 9.57657
H 19.9098 35.6015 10.7168
H 20.1367 35.7957 8.9782
C 17.7443 35.0032 8.04788
H 18.1688 34.0658 7.63349
H 18.1577 35.7749 7.40706
H 16.6324 35.0748 7.73452
C 16.2295 32.8779 16.5849
C 15.1034 33.7742 17.082
H 15.2838 34.8759 16.8559
H 14.9728 33.6277 18.2238
H 14.0996 33.5275 16.7472
C 16.1356 31.4401 17.206
H 16.8669 30.7576 16.7542
H 15.1362 31.0188 16.9228
H 16.3027 31.3845 18.3137
C 17.5289 33.4355 17.1863
H 18.4379 32.9777 16.8014
H 17.482 33.4641 18.2923
H 17.5759 34.4887 16.9779
C 15.6952 26.6621 14.4885
C 16.7609 25.9679 13.6094
H 16.2952 25.2242 12.9325
H 17.6015 25.531 14.1981
H 17.2457 26.6693 12.8992
C 16.5123 27.6688 15.3676
H 15.8647 28.2605 15.9925
H 17.1844 28.399 14.838
H 17.2476 27.1017 16.0326
C 15.0612 25.6655 15.4858
H 14.7658 24.7607 14.9672
H 14.2704 26.171 16.0574
H 15.811 25.3342 16.2192
126
Atoms. Timestep: 70000
C 11.2441 32.1513 10.364
C 11.4901 30.3194 12.5324
C 10.5316 30.123 11.5436
C 10.3715 31.0576 10.5227
C 12.3445 32.2303 11.2553
C 12.3091 31.4493 12.4065
C 14.6922 33.9149 13.2377
C 13.5227 33.3162 12.7815
C 11.0243 26.8097 12.7494
C 10.3148 26.0185 11.8561
H 10.2676 24.9931 12.0457
C 9.62724 26.622 10.7449
C 9.66648 28.0264 10.5633
H 9.34223 28.4814 9.61775
C 10.15 28.7818 11.5913
C 9.17509 31.375 9.93766
C 7.8976 30.9826 10.3718
H 7.81623 30.1633 11.0602
C 6.78143 31.6243 9.76744
C 7.02867 32.7909 9.05304
H 6.22302 33.374 8.63177
C 8.27578 33.3838 9.01034
C 8.52322 34.7472 8.77702
H 7.67427 35.3797 8.65153
C 9.79737 35.3213 9.13503
C 10.7298 34.4741 9.69352
H 11.5224 34.9288 10.2049
C 10.5955 33.0888 9.57574
C 13.1856 33.3411 11.4415
C 14.0397 33.8133 10.4743
H 13.8381 33.5258 9.41715
C 15.2523 34.4641 10.867
C 15.5158 34.5436 12.3098
H 16.4161 34.9177 12.7
C 15.083 33.5831 14.5264
H 15.9992 33.9998 14.8592
C 14.3723 32.6236 15.3396
C 13.468 31.7557 14.6627
H 12.9697 30.9787 15.2223
C 13.0874 32.1247 13.3347
C 11.7497 29.0951 13.1972
C 12.9836 28.6153 13.6641
H 13.8126 29.3279 13.7276
C 13.1775 27.2305 13.8791
C 12.1872 26.3193 13.4066
H 12.5141 25.2364 13.2526
C 10.8738 28.203 12.6518
C 9.3532 32.5789 9.26759
C 9.04532 25.6947 9.68118
C 10.1606 24.8494 9.02209
H 10.594 24.2255 9.78285
H 11.0031 25.4708 8.65853
H 9.84012 24.2562 8.13856
C 8.01564 24.793 10.4141
H 8.43013 24.0516 11.112
H 7.55975 24.1041 9.63496
H 7.23164 25.3577 10.9053
C 8.29262 26.3763 8.55676
H 7.5145 27.1177 8.96489
H 7.67212 25.6458 7.96822
H 8.91971 26.9254 7.80788
C 5.29687 31.1173 10.0248
C 4.67707 32.0045 11.1142
H 4.5491 33.0035 10.5566
H 5.26072 32.0657 12.0555
H 3.59717 31.7282 11.4368
C 5.29053 29.6665 10.4675
H 5.9294 29.0681 9.76743
H 4.21979 29.3694 10.5472
H 5.69273 29.5131 11.4739
C 4.52507 31.1494 8.64979
H 4.42236 32.1816 8.35466
H 3.56761 30.6398 8.63455
H 5.16858 30.7595 7.82737
C 10.1104 36.8695 9.13702
C 10.2597 37.3533 10.6252
H 11.2019 36.9312 10.9692
H 9.43471 37.0235 11.3261
H 10.2939 38.4512 10.7917
C 8.96709 37.7301 8.52323
H 8.68909 37.5035 7.51786
H 9.28444 38.8296 8.57286
H 8.1361 37.6652 9.23562
C 11.3412 37.2368 8.28615
H 11.0772 37.1221 7.14466
H 12.1993 36.6103 8.56421
H 11.665 38.275 8.48068
C 16.3901 34.7542 9.91158
C 17.1365 36.1549 10.1732
H 18.0708 36.263 9.52712
H 17.5661 36.1457 11.213
H 16.496 37.0108 10.0499
C 17.4135 33.5811 10.0974
H 16.9091 32.5867 9.88904
H 17.7889 33.5486 11.1821
H 18.2481 33.6697 9.32418
C 15.9629 34.7211 8.38618
H 15.539 33.7464 8.086
H 16.7962 34.7148 7.69682
H 15.3235 35.5584 8.16672
C 14.7391 32.5085 16.831
C 14.638 33.9504 17.5294
H 15.412 34.653 17.0522
H 14.9382 33.8845 18.6014
H 13.6314 34.3888 17.3064
C 13.7888 31.5873 17.5536
H 13.8574 30.5433 17.1268
H 12.7283 31.9545 17.5411
H 14.13 31.6103 18.5759
C 16.2143 31.937 16.9597
H 16.5195 31.1577 16.2445
H 16.2845 31.4759 17.9834
H 17.0301 32.7381 17.0012
C 14.3007 26.7469 14.8284
C 15.666 26.8068 14.071
H 15.5768 26.2385 13.1585
H 16.6115 26.3538 14.5438
H 15.996 27.7946 13.7354
C 14.3785 27.7328 16.0593
H 13.4153 27.7643 16.5727
H 14.6652 28.7768 15.8361
H 15.1249 27.3897 16.8059
C 14.1242 25.3255 15.4143
H 14.3683 24.5418 14.6479
H 13.1141 25.0807 15.8003
H 14.8301 25.1524 16.2827
126
Atoms. Timestep: 80000
C 12.0415 32.8257 10.3424
C 12.9329 31.0274 12.3079
C 12.1038 30.6087 11.2807
C 11.5613 31.5556 10.3724
C 12.9565 33.3148 11.3675
C 13.2365 32.4137 12.4353
C 13.9736 35.4738 13.9191
C 13.3311 34.5207 13.1767
C 14.1778 27.7773 11.7105
C 13.7236 26.8094 10.8218
H 14.261 25.8948 10.7117
C 12.6265 27.0805 9.95611
C 12.0994 28.4047 9.96929
H 11.5282 28.7849 9.12051
C 12.4007 29.2644 11.0619
C 10.3805 31.4426 9.65146
C 9.33294 30.5161 9.91205
H 9.50717 29.6029 10.5184
C 8.00561 30.8487 9.56918
C 7.79027 32.1305 8.93994
H 6.80189 32.4558 8.64382
C 8.86723 33.0741 8.84047
C 8.65406 34.4551 8.72756
H 7.67735 34.7299 8.36839
C 9.6256 35.3723 9.15271
C 10.8769 34.9291 9.56956
H 11.5604 35.5944 10.0244
C 11.1327 33.5567 9.6185
C 13.1678 34.6102 11.81
C 13.9058 35.5438 11.1194
H 13.7162 35.5749 10.0835
C 14.5709 36.6198 11.819
C 14.5114 36.5743 13.2527
H 15.0896 37.3359 13.8465
C 14.5064 35.1251 15.1968
H 14.8724 35.9657 15.8101
C 14.2851 33.835 15.7727
C 13.9087 32.8157 14.8528
H 13.8947 31.769 15.1556
C 13.3492 33.1972 13.5743
C 13.7329 29.9594 12.6231
C 15.064 30.0452 13.1099
H 15.4957 31.0212 13.395
C 15.9778 28.9396 12.9768
C 15.501 27.8117 12.1588
H 16.1511 26.9032 11.9002
C 13.3174 28.8638 11.9676
C 10.1676 32.702 9.17828
C 11.9374 25.9003 9.27893
C 10.6462 26.3139 8.55221
H 10.8356 27.1174 7.803
H 9.95094 26.6909 9.30337
H 10.1865 25.3987 8.0679
C 12.9512 25.4089 8.22051
H 13.0138 26.1648 7.41403
H 12.6009 24.5227 7.71743
H 14.0255 25.3863 8.47611
C 11.604 24.7563 10.2179
H 12.5066 24.3168 10.5423
H 10.981 23.9808 9.715
H 10.8874 25.1267 11.0203
C 6.80703 29.9239 9.67939
C 6.55202 29.4743 11.1566
H 6.68853 30.3416 11.8063
H 7.48247 28.8514 11.4076
H 5.66906 28.8438 11.3922
C 7.22528 28.7339 8.73107
H 7.43326 29.1454 7.68912
H 6.37377 28.0158 8.65212
H 8.03949 28.037 9.08971
C 5.46484 30.422 9.2491
H 5.17006 31.221 9.91737
H 4.70844 29.6497 9.47191
H 5.29572 30.6766 8.16929
C 9.22059 36.884 9.11111
C 8.36256 37.2994 10.3063
H 8.88722 37.1842 11.2267
H 7.46458 36.6564 10.2543
H 8.01536 38.354 10.2645
C 8.45629 37.2405 7.8003
H 9.11525 37.0069 6.91245
H 8.21178 38.3666 7.82206
H 7.49203 36.8196 7.53703
C 10.4474 37.7484 9.22843
H 11.1304 37.444 8.35984
H 11.0496 37.7051 10.1952
H 10.1929 38.8305 9.17641
C 15.4352 37.7448 11.1235
C 15.4501 37.6172 9.62909
H 15.9371 38.495 9.11565
H 14.3829 37.6625 9.26515
H 15.9664 36.7006 9.28973
C 14.8006 39.0762 11.4147
H 15.0357 39.3889 12.4366
H 13.7222 38.9678 11.3804
H 15.0925 39.9424 10.7677
C 16.907 37.626 11.5659
H 16.957 37.8971 12.6596
H 17.5707 38.3377 11.0314
H 17.3001 36.6059 11.4272
C 14.8107 33.4736 17.201
C 14.0157 34.3989 18.1417
H 14.2146 35.5065 17.9373
H 14.2448 34.2038 19.233
H 12.962 34.1796 17.955
C 14.5365 32.0203 17.7041
H 15.2625 31.3088 17.1068
H 13.4913 31.7189 17.5082
H 14.8482 32.0279 18.7733
C 16.3199 33.8212 17.3282
H 16.9171 33.1292 16.7153
H 16.6117 33.7302 18.3563
H 16.6135 34.8837 17.0126
C 17.3861 29.0022 13.5693
C 18.1494 30.0576 12.7635
H 17.9692 29.9611 11.649
H 19.2205 30.0911 13.0813
H 17.7246 31.0561 12.9102
C 17.3298 29.5871 14.9936
H 16.857 28.8367 15.7185
H 16.6731 30.5028 15.1495
H 18.3847 29.8615 15.3974
C 18.2689 27.7465 13.5497
H 18.6385 27.3287 12.5988
H 17.7058 26.8683 14.0045
H 19.1033 27.9562 14.1894
126
Atoms. Timestep: 90000
C 14.5152 33.1868 10.4278
C 15.0932 31.5185 12.568
C 14.1509 31.0603 11.6001
C 13.8341 31.9164 10.5133
C 15.4527 33.5819 11.3633
C 15.6843 32.8535 12.5157
C 18.2787 35.1654 12.5251
C 17.5065 34.0746 12.1414
C 15.4946 27.9773 12.6896
C 15.1527 27.0662 11.6359
H 15.7732 26.2305 11.4403
C 14.2377 27.4362 10.6618
C 13.7677 28.8189 10.5913
H 13.2272 29.088 9.69686
C 14.0588 29.6952 11.6567
C 12.6643 31.9538 9.8175
C 11.483 31.2275 10.0512
H 11.4599 30.5083 10.8718
C 10.2755 31.6635 9.48643
C 10.1793 33.0415 9.05993
H 9.19407 33.4809 8.76661
C 11.3305 33.8302 9.02671
C 11.2099 35.2339 9.09432
H 10.292 35.6991 8.80577
C 12.3175 36.0001 9.40561
C 13.5398 35.3655 9.88519
H 14.3647 36.021 10.1899
C 13.685 33.998 9.72954
C 16.6487 34.2011 11.0676
C 16.821 35.2015 10.0937
H 16.2574 35.1126 9.21507