60
C60 ORCA - Last Step: 7
  C      2.245394    0.602471    2.702718
  C      3.157493    0.167059    1.648836
  C      1.349519   -0.315686    3.280637
  C      3.140678   -1.170913    1.212558
  C      3.240607   -1.475698   -0.212358
  C      3.274745    1.250903    0.676759
  C      3.370564    0.956697   -0.696166
  C      3.353329   -0.431483   -1.149101
  C     -0.456861    1.388103    3.253369
  C      0.472613    2.341809    2.652571
  C     -0.026793    0.084071    3.562857
  C      1.799651    1.956595    2.382890
  C      2.435430    2.356920    1.130326
  C     -0.267460    3.141336    1.680639
  C      0.345432    3.527684    0.474308
  C      1.721687    3.127608    0.193916
  C     -2.160321   -0.852746    2.703754
  C     -2.606298    0.500019    2.382728
  C     -0.894316   -1.056996    3.282639
  C     -1.771251    1.599692    2.652986
  C     -1.654103    2.682928    1.680785
  C     -3.357751    0.443052    1.132184
  C     -3.245160    1.487378    0.195607
  C     -2.377867    2.628407    0.475176
  C     -0.511556   -3.022604    1.814379
  C     -1.826057   -2.811117    1.214286
  C     -0.054060   -2.161693    2.828989
  C     -2.635230   -1.746175    1.651052
  C     -3.375257   -0.945377    0.679392
  C     -1.726321   -3.116117   -0.210673
  C     -2.439854   -2.345216   -1.147067
  C     -3.278994   -1.239123   -0.693593
  C      2.211841   -2.124167    1.813287
  C      1.737478   -3.018047    0.760224
  C      1.333097   -1.704219    2.828983
  C      0.400876   -3.458637    0.760511
  C     -0.349909   -3.516426   -0.491131
  C      2.373561   -2.617120   -0.492029
  C      1.649467   -2.671086   -1.697474
  C      0.262878   -3.129377   -1.697285
  C     -2.250099   -0.590813   -2.719712
  C     -1.804105   -1.944998   -2.399665
  C     -0.477122   -2.330069   -2.669430
  C     -1.354081    0.327321   -3.297570
  C     -2.216788    2.135715   -1.830442
  C     -3.145263    1.182502   -1.229409
  C     -3.161953   -0.155450   -1.665782
  C     -1.337428    1.715870   -2.845752
  C      0.507076    3.034259   -1.831357
  C     -0.405417    3.470084   -0.777413
  C     -1.741828    3.029308   -0.777093
  C      0.049608    2.173135   -2.845840
  C      2.155924    0.864507   -2.720793
  C      2.630444    1.757588   -1.667800
  C      1.821574    2.822695   -1.231105
  C      0.889756    1.068350   -3.299636
  C      0.452495   -1.376501   -3.270354
  C      1.766850   -1.588173   -2.669910
  C      2.601627   -0.488384   -2.399574
  C      0.022108   -0.072557   -3.579832
