126
HtBDC ORCA - Last Step: 8
  C      2.425449   -4.193154    0.228817
  C      3.841388   -4.109031    0.403690
  H      4.411075   -5.043990    0.496957
  C      4.484449   -2.870476    0.491825
  C      3.721890   -1.659335    0.374475
  H      4.238482   -0.703473    0.512078
  C      2.348883   -1.694329    0.140569
  C      1.258191   -0.701020    0.020874
  C      1.258085    0.701218   -0.020851
  C      2.348624    1.694696   -0.140545
  C      3.721645    1.659910   -0.374399
  H      4.238393    0.704121   -0.511922
  C      4.484013    2.871168   -0.491793
  C      3.840749    4.109624   -0.403750
  H      4.410287    5.044669   -0.497061
  C      2.424791    4.193529   -0.228915
  C      1.640869    5.388276   -0.227493
  H      2.159074    6.353732   -0.307665
  C      0.245066    5.334690   -0.159749
  C     -0.417425    4.064044   -0.070796
  H     -1.511969    4.046370   -0.091763
  C      0.308735    2.877286   -0.002523
  C     -0.003578    1.430068    0.048288
  C     -1.215758    0.724456    0.087170
  C     -2.624353    1.157759    0.232275
  C     -3.292436    2.331309    0.575316
  H     -2.733550    3.232529    0.846974
  C     -4.727470    2.379148    0.624063
  C     -5.472946    1.235286    0.320241
  H     -6.571814    1.263829    0.332554
  C     -4.830085   -0.000362    0.000060
  C     -5.472775   -1.236108   -0.320083
  H     -6.571639   -1.264823   -0.332332
  C     -4.727141   -2.379857   -0.623943
  C     -3.292112   -2.331800   -0.575264
  H     -2.733107   -3.232936   -0.846947
  C     -2.624187   -1.158152   -0.232254
  C     -1.215650   -0.724641   -0.087182
  C     -0.003359   -1.430065   -0.048309
  C      0.309185   -2.877237    0.002452
  C     -0.416782   -4.064117    0.070648
  H     -1.511328   -4.046634    0.091587
  C      0.245912   -5.334662    0.159548
  C      1.641722   -5.388028    0.227314
  H      2.160076   -6.353407    0.307446
  C      1.728292   -2.976195    0.092253
  C      1.727828    2.976465   -0.092302
  C     -3.421321   -0.000256    0.000024
  C      6.002171   -2.746734    0.726836
  C      6.689036   -4.120873    0.837949
  H      6.567102   -4.715671   -0.090109
  H      6.287415   -4.713007    1.685244
  H      7.776514   -3.985512    1.009115
  C      6.637454   -1.981014   -0.458635
  H      6.455539   -2.511417   -1.415657
  H      7.733818   -1.882257   -0.317709
  H      6.224045   -0.958532   -0.556910
  C      6.251010   -1.968311    2.041855
  H      5.804838   -0.954929    2.015294
  H      7.339503   -1.850637    2.223237
  H      5.811247   -2.505052    2.906625
  C      6.001762    2.747654   -0.726740
  C      6.250774    1.969156   -2.041682
  H      5.810955    2.505749   -2.906515
  H      5.804767    0.955704   -2.015047
  H      7.339293    1.851642   -2.223016
  C      6.637120    1.982139    0.458823
  H      6.455107    2.512614    1.415786
  H      7.733502    1.883515    0.317936
  H      6.223843    0.959612    0.557193
  C      6.688407    4.121894   -0.837950
  H      6.286711    4.713886   -1.685309
  H      7.775911    3.986693   -1.009074
  H      6.566351    4.716755    0.090051
  C     -0.629252    6.602648   -0.194511
  C      0.211541    7.890977   -0.248983
  H      0.837008    7.938164   -1.163469
  H      0.877954    7.985157    0.632611
  H     -0.457906    8.775348   -0.258400
  C     -1.504667    6.651277    1.080861
  H     -2.168244    5.768000    1.162890
  H     -2.152457    7.552844    1.074324
  H     -0.874318    6.682894    1.992857
  C     -1.535301    6.558136   -1.447838
  H     -2.191651    5.665465   -1.455672
  H     -0.925590    6.533497   -2.374001
  H     -2.189560    7.454474   -1.487195
  C     -5.393884    3.718244    0.994245
  C     -4.893175    4.175878    2.385948
  H     -5.362239    5.142017    2.664897
  H     -3.794173    4.320948    2.405147
  H     -5.148732    3.429274    3.164861
  C     -5.011774    4.779936   -0.065294
  H     -5.348314    4.471915   -1.076091
  H     -3.916271    4.940445   -0.109203
  H     -5.481621    5.756533    0.173846
  C     -6.928781    3.612106    1.043623
  H     -7.355275    3.326412    0.060996
  H     -7.363979    4.593149    1.322049
  H     -7.264246    2.869171    1.795036
  C     -5.393371   -3.719054   -0.994093
  C     -6.928287   -3.613150   -1.043377
  H     -7.354766   -3.327525   -0.060723
  H     -7.363352   -4.594258   -1.321781
  H     -7.263915   -2.870265   -1.794766
  C     -4.892677   -4.176597   -2.385831
  H     -3.793654   -4.321514   -2.405094
  H     -5.148381   -3.430018   -3.164718
  H     -5.361624   -5.142796   -2.664769
  C     -5.011034   -4.780699    0.065412
  H     -3.915506   -4.941061    0.109237
  H     -5.480766   -5.757359   -0.173697
  H     -5.347541   -4.472730    1.076236
  C     -0.628208   -6.602758    0.194253
  C      0.212785   -7.890960    0.248612
  H      0.879182   -7.984979   -0.633011
  H     -0.456527   -8.775435    0.257992
  H      0.838288   -7.938116    1.163075
  C     -1.534217   -6.558458    1.447617
  H     -2.190689   -5.665877    1.455533
  H     -0.924473   -6.533794    2.373758
  H     -2.188349   -7.454890    1.486940
  C     -1.503664   -6.651440   -1.081089
  H     -0.873346   -6.682889   -1.993112
  H     -2.167390   -5.768265   -1.163028
  H     -2.151306   -7.553113   -1.074591
