24
PCARBORANE ORCA - Last Step: 8
  H      0.348701    0.074508    0.020927
  B     -0.833046   -0.149988   -0.005689
  C     -1.423307   -1.680692   -0.478417
  B     -1.554460   -1.278218    1.178313
  B     -1.655140   -0.391737   -1.576153
  B     -2.096584    0.980229   -0.536421
  B     -2.032740    0.432269    1.166988
  B     -2.824051   -2.216509    0.340666
  B     -2.887483   -1.670205   -1.362733
  H     -0.681560   -2.443004   -0.749572
  B     -3.265620   -0.844455    1.379284
  H     -0.858882   -1.812101    2.001415
  B     -3.365273    0.041463   -1.376106
  H     -1.021109   -0.327321   -2.595737
  C     -3.496173    0.443869    0.281094
  H     -1.937969    2.142792   -0.798424
  H     -1.832230    1.232541    2.040906
  B     -4.087811   -1.087709   -0.190914
  H     -2.980823   -3.379485    0.601406
  H     -3.086719   -2.470145   -2.238353
  H     -3.899735   -0.909449    2.399174
  H     -4.061436    0.574031   -2.199392
  H     -4.239296    1.205473    0.551035
  H     -5.268838   -1.314981   -0.218359
