28
PVBA ORCA - Last Step: 12
C   3.8683  7.1624  3.1312
C   2.3797  7.2229  3.1143
C   1.6694  8.4412  3.1054
H   2.2232  9.3900  3.1145
C   0.2713  8.4334  3.0871
H  -0.2795  9.3873  3.0787
C  -0.4608  7.2184  3.0785
C   0.2713  6.0011  3.0871
H  -0.2629  5.0398  3.0774
C   1.6648  6.0040  3.1049
H   2.2384  5.0655  3.1123
C  -1.9219  7.2743  3.0612
H  -2.3445  8.2935  3.0508
C  -2.7765  6.2141  3.0539
H  -2.3606  5.1925  3.0584
C  -4.2382  6.2794  3.0352
C  -4.9790  7.4871  3.0662
H  -4.4731  8.4624  3.1159
C  -6.3781  7.4354  3.0394
H  -6.9608  8.3740  3.0634
N  -7.0918  6.2944  2.9849
C  -6.3945  5.1461  2.9582
H  -6.9860  4.2139  2.9136
C  -4.9930  5.0831  2.9826
O   4.5240  6.1323  3.1387
O   4.4478  8.3956  3.1361
H   5.4146  8.2255  3.1465
H  -4.4820  4.1074  2.9596
